3
## CELL(abcABC): 20.000000 20.000000 20.000000 90.0000 90.0000 90.0000 Step:   000  Bead:   0 positions{angstrom}  cell{atomic_unit} 
O 0.000000 0.000000  1.157132295528
O 0.000000 0.000000 -1.157130707997
C 0.000000 0.000000 -1.587531e-06
