ANIMSTEPS 9
 CRYSTAL
 PRIMVEC
    10.583544980     0.000000000     0.000000000
     0.000000000    10.583544980     0.000000000
     0.000000000     0.000000000    10.583544980
PRIMCOORD  1
   3  1
     O                 0              0        1.15713     0.00543872   -0.000154545   -7.63158e-07
     O                 0              0       -1.15713    -0.00078962    9.78154e-06   -7.63158e-07
     C                 0              0   -1.58753e-06     0.00232455   -7.23814e-05   -7.63158e-07
PRIMCOORD  2
   3  1
     O                 0              0        1.15713    -1.5501e-05     0.00180638   -0.000434643
     O                 0              0       -1.15713     0.00502252   -0.000506981   -0.000434643
     C                 0              0   -1.58753e-06     0.00250351    0.000649697   -0.000434643
PRIMCOORD  3
   3  1
     O                 0              0        1.15713    0.000169877     0.00511544    1.96058e-05
     O                 0              0       -1.15713    -0.00179793   -0.000373095    1.96058e-05
     C                 0              0   -1.58753e-06   -0.000814027     0.00237117    1.96058e-05
PRIMCOORD  4
   3  1
     O                 0              0        1.15713   -4.82234e-07    0.000348649    0.000149111
     O                 0              0       -1.15713    -0.00032832     -0.0054022    0.000149111
     C                 0              0   -1.58753e-06   -0.000164401    -0.00252678    0.000149111
PRIMCOORD  5
   3  1
     O                 0              0        1.15713     1.6699e-06   -0.000180755     -0.0035005
     O                 0              0       -1.15713   -0.000647508    -0.00016926     -0.0035005
     C                 0              0   -1.58753e-06    -0.00032292   -0.000175007     -0.0035005
PRIMCOORD  6
   3  1
     O                 0              0        1.15713     0.00205537    0.000673933   -2.22525e-09
     O                 0              0       -1.15713     0.00205537    0.000673936     3.0202e-09
     C                 0              0   -1.58753e-06     -0.0054759    -0.00179549   -1.05895e-09
PRIMCOORD  7
   3  1
     O                 0              0        1.15713    0.000673933    -0.00205537   -8.26929e-12
     O                 0              0       -1.15713    0.000673936    -0.00205537    3.69328e-10
     C                 0              0   -1.58753e-06    -0.00179549      0.0054759   -4.80965e-10
PRIMCOORD  8
   3  1
     O                 0              0        1.15713    1.33266e-09    3.33171e-10     0.00414054
     O                 0              0       -1.15713    1.33266e-09    3.33172e-10    -0.00414047
     C                 0              0   -1.58753e-06   -3.55046e-09   -8.87632e-10   -8.92961e-08
PRIMCOORD  9
   3  1
     O                 0              0        1.15713   -4.33957e-10    4.76973e-11     0.00216297
     O                 0              0       -1.15713   -4.33959e-10    4.76975e-11      0.0021631
     C                 0              0   -1.58753e-06    1.15615e-09   -1.27075e-10    -0.00576275
