3
# CELL(abcABC):  100.00000   100.00000   100.00000    90.00000    90.00000    90.00000  PyEPFD-Step: 0 positions{angstrom} cell{angstrom}
O      -0.0060215693      0.024954011        1.1515462
O      -0.0060215691      0.024954015       -1.1539117
C        0.016042212     -0.066480597     0.0031511087
3
# CELL(abcABC):  100.00000   100.00000   100.00000    90.00000    90.00000    90.00000  PyEPFD-Step: 1 positions{angstrom} cell{angstrom}
O       0.0060215737     -0.024954008        1.1683899
O       0.0060215735     -0.024954012       -1.1660242
C        -0.01604222      0.066480591    -0.0031512315
3
# CELL(abcABC):  100.00000   100.00000   100.00000    90.00000    90.00000    90.00000  PyEPFD-Step: 2 positions{angstrom} cell{angstrom}
O       -0.010104369      0.013115656        1.1786869
O        -0.01010437      0.013115657       -1.1558789
C          0.0269193     -0.034941741     -0.030381581
3
# CELL(abcABC):  100.00000   100.00000   100.00000    90.00000    90.00000    90.00000  PyEPFD-Step: 3 positions{angstrom} cell{angstrom}
O        0.010104373     -0.013115653        1.1412492
O        0.010104374     -0.013115654       -1.1640571
C       -0.026919308      0.034941735      0.030381458
3
# CELL(abcABC):  100.00000   100.00000   100.00000    90.00000    90.00000    90.00000  PyEPFD-Step: 4 positions{angstrom} cell{angstrom}
O         0.01730093     0.0029586374         1.146988
O        0.017300932     0.0029586386       -1.1412189
C       -0.046091833     -0.007882179    -0.0076847371
3
# CELL(abcABC):  100.00000   100.00000   100.00000    90.00000    90.00000    90.00000  PyEPFD-Step: 5 positions{angstrom} cell{angstrom}
O       -0.017300925    -0.0029586344        1.1729481
O       -0.017300928    -0.0029586356       -1.1787171
C        0.046091824      0.007882173     0.0076846142
3
# CELL(abcABC):  100.00000   100.00000   100.00000    90.00000    90.00000    90.00000  PyEPFD-Step: 6 positions{angstrom} cell{angstrom}
O       -0.014982757    -0.0040647452        1.1794836
O        -0.01498276    -0.0040647466       -1.1673688
C        0.039915936       0.01082899     -0.016137628
3
# CELL(abcABC):  100.00000   100.00000   100.00000    90.00000    90.00000    90.00000  PyEPFD-Step: 7 positions{angstrom} cell{angstrom}
O        0.014982762     0.0040647483        1.1404525
O        0.014982764     0.0040647496       -1.1525672
C       -0.039915944     -0.010828996      0.016137505
3
# CELL(abcABC):  100.00000   100.00000   100.00000    90.00000    90.00000    90.00000  PyEPFD-Step: 8 positions{angstrom} cell{angstrom}
O       0.0003489468      0.012363255        1.1732322
O      0.00034894734      0.012363257       -1.1639232
C     -0.00092963697     -0.032937253     -0.012400183
3
# CELL(abcABC):  100.00000   100.00000   100.00000    90.00000    90.00000    90.00000  PyEPFD-Step: 9 positions{angstrom} cell{angstrom}
O     -0.00034894237     -0.012363252        1.1467039
O     -0.00034894291     -0.012363254       -1.1560128
C      0.00092962812      0.032937247       0.01240006
3
# CELL(abcABC):  100.00000   100.00000   100.00000    90.00000    90.00000    90.00000  PyEPFD-Step: 10 positions{angstrom} cell{angstrom}
O       -0.018685296    -0.0047031068         1.136532
O         -0.0186853    -0.0047031084       -1.1276213
C        0.049779962      0.012529665     -0.011869538
3
# CELL(abcABC):  100.00000   100.00000   100.00000    90.00000    90.00000    90.00000  PyEPFD-Step: 11 positions{angstrom} cell{angstrom}
O        0.018685301     0.0047031098        1.1834041
O        0.018685304     0.0047031114       -1.1923146
C       -0.049779971     -0.012529671      0.011869415
3
# CELL(abcABC):  100.00000   100.00000   100.00000    90.00000    90.00000    90.00000  PyEPFD-Step: 12 positions{angstrom} cell{angstrom}
O       0.0059775929      0.012089036        1.2187835
O       0.0059775942      0.012089038       -1.1831545
C       -0.015925052     -0.032206699     -0.047459961
3
# CELL(abcABC):  100.00000   100.00000   100.00000    90.00000    90.00000    90.00000  PyEPFD-Step: 13 positions{angstrom} cell{angstrom}
O      -0.0059775885     -0.012089033        1.1011526
O      -0.0059775898     -0.012089035       -1.1367815
C        0.015925043      0.032206693      0.047459838
3
# CELL(abcABC):  100.00000   100.00000   100.00000    90.00000    90.00000    90.00000  PyEPFD-Step: 14 positions{angstrom} cell{angstrom}
O       -0.015942138     0.0042427484        1.1558563
O        -0.01594214     0.0042427483       -1.1362627
C        0.042471845     -0.011303209     -0.026099804
3
# CELL(abcABC):  100.00000   100.00000   100.00000    90.00000    90.00000    90.00000  PyEPFD-Step: 15 positions{angstrom} cell{angstrom}
O        0.015942142    -0.0042427454        1.1640798
O        0.015942145    -0.0042427453       -1.1836732
C       -0.042471854      0.011303203      0.026099681
3
# CELL(abcABC):  100.00000   100.00000   100.00000    90.00000    90.00000    90.00000  PyEPFD-Step: 16 positions{angstrom} cell{angstrom}
O       0.0036090341     0.0021274135        1.1636395
O       0.0036090348      0.002127414       -1.1702159
C      -0.0096149156    -0.0056676941     0.0087601333
3
# CELL(abcABC):  100.00000   100.00000   100.00000    90.00000    90.00000    90.00000  PyEPFD-Step: 17 positions{angstrom} cell{angstrom}
O      -0.0036090296    -0.0021274105        1.1562966
O      -0.0036090303     -0.002127411       -1.1497201
C       0.0096149067     0.0056676881    -0.0087602561
3
# CELL(abcABC):  100.00000   100.00000   100.00000    90.00000    90.00000    90.00000  PyEPFD-Step: 18 positions{angstrom} cell{angstrom}
O       0.0096021128     -0.022621895        1.1920427
O       0.0096021134     -0.022621898       -1.1997436
C       -0.025581224      0.060267551      0.010258023
3
# CELL(abcABC):  100.00000   100.00000   100.00000    90.00000    90.00000    90.00000  PyEPFD-Step: 19 positions{angstrom} cell{angstrom}
O      -0.0096021084      0.022621898        1.1278933
O       -0.009602109      0.022621901       -1.1201924
C        0.025581215     -0.060267557     -0.010258146
3
# CELL(abcABC):  100.00000   100.00000   100.00000    90.00000    90.00000    90.00000  PyEPFD-Step: 20 positions{angstrom} cell{angstrom}
O      -0.0043205026        0.0164999        1.1637253
O      -0.0043205027      0.016499902       -1.1505837
C        0.011510359     -0.043957791     -0.017505418
3
# CELL(abcABC):  100.00000   100.00000   100.00000    90.00000    90.00000    90.00000  PyEPFD-Step: 21 positions{angstrom} cell{angstrom}
O       0.0043205071     -0.016499897        1.1562108
O       0.0043205071     -0.016499899       -1.1693522
C       -0.011510367      0.043957785      0.017505296
3
# CELL(abcABC):  100.00000   100.00000   100.00000    90.00000    90.00000    90.00000  PyEPFD-Step: 22 positions{angstrom} cell{angstrom}
O       -0.022125177     0.0093499207        1.1767864
O        -0.02212518     0.0093499212       -1.1853625
C        0.058944231     -0.024909353      0.011423865
3
# CELL(abcABC):  100.00000   100.00000   100.00000    90.00000    90.00000    90.00000  PyEPFD-Step: 23 positions{angstrom} cell{angstrom}
O        0.022125181    -0.0093499177        1.1431497
O        0.022125184    -0.0093499182       -1.1345735
C        -0.05894424      0.024909347     -0.011423988
3
# CELL(abcABC):  100.00000   100.00000   100.00000    90.00000    90.00000    90.00000  PyEPFD-Step: 24 positions{angstrom} cell{angstrom}
O       0.0021498385     0.0087191223        1.1597906
O       0.0021498394     0.0087191239       -1.1883413
C      -0.0057274373     -0.023228829      0.038031449
3
# CELL(abcABC):  100.00000   100.00000   100.00000    90.00000    90.00000    90.00000  PyEPFD-Step: 25 positions{angstrom} cell{angstrom}
O      -0.0021498341    -0.0087191193        1.1601455
O       -0.002149835    -0.0087191209       -1.1315946
C       0.0057274284      0.023228823     -0.038031572
3
# CELL(abcABC):  100.00000   100.00000   100.00000    90.00000    90.00000    90.00000  PyEPFD-Step: 26 positions{angstrom} cell{angstrom}
O       -0.001688439     -0.010362091        1.1907343
O      -0.0016884399     -0.010362092       -1.1662157
C       0.0044982144      0.027605903      -0.03266026
3
# CELL(abcABC):  100.00000   100.00000   100.00000    90.00000    90.00000    90.00000  PyEPFD-Step: 27 positions{angstrom} cell{angstrom}
O       0.0016884434      0.010362094        1.1292018
O       0.0016884443      0.010362095       -1.1537203
C      -0.0044982232     -0.027605909      0.032660137
3
# CELL(abcABC):  100.00000   100.00000   100.00000    90.00000    90.00000    90.00000  PyEPFD-Step: 28 positions{angstrom} cell{angstrom}
O       -0.011417313      0.018931139         1.176637
O       -0.011417314      0.018931141       -1.1946887
C        0.030417146     -0.050434914      0.024045964
3
# CELL(abcABC):  100.00000   100.00000   100.00000    90.00000    90.00000    90.00000  PyEPFD-Step: 29 positions{angstrom} cell{angstrom}
O        0.011417317     -0.018931136        1.1432991
O        0.011417318     -0.018931138       -1.1252473
C       -0.030417155      0.050434908     -0.024046087
3
# CELL(abcABC):  100.00000   100.00000   100.00000    90.00000    90.00000    90.00000  PyEPFD-Step: 30 positions{angstrom} cell{angstrom}
O       0.0012780634      0.018714414        1.1268963
O       0.0012780645      0.018714417       -1.1469816
C      -0.0034049201     -0.049857531      0.026754948
3
# CELL(abcABC):  100.00000   100.00000   100.00000    90.00000    90.00000    90.00000  PyEPFD-Step: 31 positions{angstrom} cell{angstrom}
O       -0.001278059     -0.018714411        1.1930398
O      -0.0012780601     -0.018714414       -1.1729544
C       0.0034049112      0.049857525     -0.026755071
3
# CELL(abcABC):  100.00000   100.00000   100.00000    90.00000    90.00000    90.00000  PyEPFD-Step: 32 positions{angstrom} cell{angstrom}
O     -0.00033291785     -0.022558027        1.1817409
O      -0.0003329189     -0.022558031       -1.1812619
C      0.00088693748        0.0600974   -0.00063806117
3
# CELL(abcABC):  100.00000   100.00000   100.00000    90.00000    90.00000    90.00000  PyEPFD-Step: 33 positions{angstrom} cell{angstrom}
O      0.00033292228       0.02255803        1.1381952
O      0.00033292333      0.022558034       -1.1386741
C     -0.00088694634     -0.060097406    0.00063793832
3
# CELL(abcABC):  100.00000   100.00000   100.00000    90.00000    90.00000    90.00000  PyEPFD-Step: 34 positions{angstrom} cell{angstrom}
O      -0.0038485268     0.0041023837        1.1830825
O      -0.0038485273      0.004102384       -1.1595125
C        0.010252957      -0.01092926     -0.031396671
3
# CELL(abcABC):  100.00000   100.00000   100.00000    90.00000    90.00000    90.00000  PyEPFD-Step: 35 positions{angstrom} cell{angstrom}
O       0.0038485312    -0.0041023807        1.1368536
O       0.0038485318     -0.004102381       -1.1604235
C       -0.010252966      0.010929254      0.031396548
3
# CELL(abcABC):  100.00000   100.00000   100.00000    90.00000    90.00000    90.00000  PyEPFD-Step: 36 positions{angstrom} cell{angstrom}
O       -0.014375739     -0.011264397         1.142662
O       -0.014375742       -0.0112644       -1.1295492
C        0.038298765      0.030009761     -0.017467042
3
# CELL(abcABC):  100.00000   100.00000   100.00000    90.00000    90.00000    90.00000  PyEPFD-Step: 37 positions{angstrom} cell{angstrom}
O        0.014375744        0.0112644        1.1772741
O        0.014375747      0.011264403       -1.1903868
C       -0.038298774     -0.030009767      0.017466919
3
# CELL(abcABC):  100.00000   100.00000   100.00000    90.00000    90.00000    90.00000  PyEPFD-Step: 38 positions{angstrom} cell{angstrom}
O        0.015858557      0.003512284        1.1547489
O        0.015858559     0.0035122853       -1.1409846
C       -0.042249171    -0.0093571627     -0.018334906
3
# CELL(abcABC):  100.00000   100.00000   100.00000    90.00000    90.00000    90.00000  PyEPFD-Step: 39 positions{angstrom} cell{angstrom}
O       -0.015858552     -0.003512281        1.1651872
O       -0.015858555    -0.0035122823       -1.1789514
C        0.042249163     0.0093571567      0.018334783
3
# CELL(abcABC):  100.00000   100.00000   100.00000    90.00000    90.00000    90.00000  PyEPFD-Step: 40 positions{angstrom} cell{angstrom}
O      -0.0056123925     -0.022274367        1.1337358
O      -0.0056123945      -0.02227437       -1.1253014
C        0.014952117      0.059341692      -0.01123515
3
# CELL(abcABC):  100.00000   100.00000   100.00000    90.00000    90.00000    90.00000  PyEPFD-Step: 41 positions{angstrom} cell{angstrom}
O        0.005612397       0.02227437        1.1862003
O       0.0056123989      0.022274373       -1.1946345
C       -0.014952125     -0.059341698      0.011235027
3
# CELL(abcABC):  100.00000   100.00000   100.00000    90.00000    90.00000    90.00000  PyEPFD-Step: 42 positions{angstrom} cell{angstrom}
O       0.0031404524     -0.014625042        1.1851451
O       0.0031404522     -0.014625044       -1.1732769
C      -0.0083665544      0.038962937     -0.015809207
3
# CELL(abcABC):  100.00000   100.00000   100.00000    90.00000    90.00000    90.00000  PyEPFD-Step: 43 positions{angstrom} cell{angstrom}
O      -0.0031404479      0.014625045         1.134791
O      -0.0031404477      0.014625047       -1.1466591
C       0.0083665455     -0.038962943      0.015809085
3
# CELL(abcABC):  100.00000   100.00000   100.00000    90.00000    90.00000    90.00000  PyEPFD-Step: 44 positions{angstrom} cell{angstrom}
O        0.018585248       0.00829744         1.146279
O        0.018585251     0.0082974422       -1.1592895
C       -0.049513417     -0.022105415      0.017330733
3
# CELL(abcABC):  100.00000   100.00000   100.00000    90.00000    90.00000    90.00000  PyEPFD-Step: 45 positions{angstrom} cell{angstrom}
O       -0.018585243     -0.008297437        1.1736571
O       -0.018585247    -0.0082974392       -1.1606465
C        0.049513408      0.022105409     -0.017330856
3
# CELL(abcABC):  100.00000   100.00000   100.00000    90.00000    90.00000    90.00000  PyEPFD-Step: 46 positions{angstrom} cell{angstrom}
O        0.020011807    -0.0081458932        1.1552078
O        0.020011809    -0.0081458935       -1.1646374
C       -0.053313947      0.021701675      0.012560881
3
# CELL(abcABC):  100.00000   100.00000   100.00000    90.00000    90.00000    90.00000  PyEPFD-Step: 47 positions{angstrom} cell{angstrom}
O       -0.020011802     0.0081458962        1.1647283
O       -0.020011805     0.0081458965       -1.1552985
C        0.053313938     -0.021701681     -0.012561004
3
# CELL(abcABC):  100.00000   100.00000   100.00000    90.00000    90.00000    90.00000  PyEPFD-Step: 48 positions{angstrom} cell{angstrom}
O       -0.027208821      0.012820452        1.1615989
O       -0.027208825      0.012820453       -1.1715499
C        0.072487693      -0.03415528      0.013255374
3
# CELL(abcABC):  100.00000   100.00000   100.00000    90.00000    90.00000    90.00000  PyEPFD-Step: 49 positions{angstrom} cell{angstrom}
O        0.027208825     -0.012820449        1.1583372
O        0.027208829      -0.01282045       -1.1483861
C       -0.072487702      0.034155274     -0.013255497
3
# CELL(abcABC):  100.00000   100.00000   100.00000    90.00000    90.00000    90.00000  PyEPFD-Step: 50 positions{angstrom} cell{angstrom}
O       -0.052628654    -0.0082384909        1.1310996
O       -0.052628662    -0.0082384945       -1.1335934
C          0.1402093      0.021948371     0.0033220393
3
# CELL(abcABC):  100.00000   100.00000   100.00000    90.00000    90.00000    90.00000  PyEPFD-Step: 51 positions{angstrom} cell{angstrom}
O        0.052628658     0.0082384939        1.1888365
O        0.052628667     0.0082384975       -1.1863425
C        -0.14020931     -0.021948377    -0.0033221622
3
# CELL(abcABC):  100.00000   100.00000   100.00000    90.00000    90.00000    90.00000  PyEPFD-Step: 52 positions{angstrom} cell{angstrom}
O      -0.0070017277      0.002559647        1.1901946
O      -0.0070017287     0.0025596471       -1.1885457
C        0.018653477    -0.0068192174    -0.0021963701
3
# CELL(abcABC):  100.00000   100.00000   100.00000    90.00000    90.00000    90.00000  PyEPFD-Step: 53 positions{angstrom} cell{angstrom}
O       0.0070017321     -0.002559644        1.1297415
O       0.0070017331     -0.002559644       -1.1313902
C       -0.018653486     0.0068192114     0.0021962472
3
# CELL(abcABC):  100.00000   100.00000   100.00000    90.00000    90.00000    90.00000  PyEPFD-Step: 54 positions{angstrom} cell{angstrom}
O      -0.0095209145    -0.0049381725        1.1671629
O      -0.0095209163    -0.0049381738       -1.1611317
C        0.025364906      0.013155909    -0.0080339683
3
# CELL(abcABC):  100.00000   100.00000   100.00000    90.00000    90.00000    90.00000  PyEPFD-Step: 55 positions{angstrom} cell{angstrom}
O        0.009520919     0.0049381755        1.1527732
O       0.0095209207     0.0049381768       -1.1588043
C       -0.025364915     -0.013155915     0.0080338454
3
# CELL(abcABC):  100.00000   100.00000   100.00000    90.00000    90.00000    90.00000  PyEPFD-Step: 56 positions{angstrom} cell{angstrom}
O       -0.028929636    7.9067646e-05         1.158676
O       -0.028929641    7.9066355e-05       -1.1587646
C        0.077072161   -0.00021064333    0.00011797419
3
# CELL(abcABC):  100.00000   100.00000   100.00000    90.00000    90.00000    90.00000  PyEPFD-Step: 57 positions{angstrom} cell{angstrom}
O        0.028929641   -7.9064633e-05        1.1612601
O        0.028929645   -7.9063341e-05       -1.1611714
C        -0.07707217    0.00021063731   -0.00011809705
3
# CELL(abcABC):  100.00000   100.00000   100.00000    90.00000    90.00000    90.00000  PyEPFD-Step: 58 positions{angstrom} cell{angstrom}
O        0.013407839    -0.0043640135        1.1793412
O        0.013407841    -0.0043640136        -1.165106
C       -0.035720154      0.011626277     -0.018962103
3
# CELL(abcABC):  100.00000   100.00000   100.00000    90.00000    90.00000    90.00000  PyEPFD-Step: 59 positions{angstrom} cell{angstrom}
O       -0.013407835     0.0043640165        1.1405949
O       -0.013407837     0.0043640166       -1.1548299
C        0.035720145     -0.011626283      0.018961981
3
# CELL(abcABC):  100.00000   100.00000   100.00000    90.00000    90.00000    90.00000  PyEPFD-Step: 60 positions{angstrom} cell{angstrom}
O      -0.0046366246     0.0028497205        1.1478818
O      -0.0046366251     0.0028497207        -1.155764
C        0.012352547    -0.0075920095      0.010499507
3
# CELL(abcABC):  100.00000   100.00000   100.00000    90.00000    90.00000    90.00000  PyEPFD-Step: 61 positions{angstrom} cell{angstrom}
O        0.004636629    -0.0028497175        1.1720542
O       0.0046366296    -0.0028497177        -1.164172
C       -0.012352556     0.0075920035      -0.01049963
3
# CELL(abcABC):  100.00000   100.00000   100.00000    90.00000    90.00000    90.00000  PyEPFD-Step: 62 positions{angstrom} cell{angstrom}
O     -0.00084561481   -0.00023478801        1.1744582
O     -0.00084561493   -0.00023478808       -1.1779158
C       0.0022528248    0.00062550559     0.0046057183
3
# CELL(abcABC):  100.00000   100.00000   100.00000    90.00000    90.00000    90.00000  PyEPFD-Step: 63 positions{angstrom} cell{angstrom}
O      0.00084561924    0.00023479103        1.1454778
O      0.00084561936    0.00023479109       -1.1420201
C      -0.0022528336   -0.00062551162    -0.0046058411
3
# CELL(abcABC):  100.00000   100.00000   100.00000    90.00000    90.00000    90.00000  PyEPFD-Step: 64 positions{angstrom} cell{angstrom}
O       -0.018919411    -0.0025151215        1.1916449
O       -0.018919414    -0.0025151228       -1.1837697
C        0.050403671     0.0067005995     -0.010490312
3
# CELL(abcABC):  100.00000   100.00000   100.00000    90.00000    90.00000    90.00000  PyEPFD-Step: 65 positions{angstrom} cell{angstrom}
O        0.018919415     0.0025151245        1.1282911
O        0.018919418     0.0025151258       -1.1361663
C        -0.05040368    -0.0067006055      0.010490189
3
# CELL(abcABC):  100.00000   100.00000   100.00000    90.00000    90.00000    90.00000  PyEPFD-Step: 66 positions{angstrom} cell{angstrom}
O       0.0097235557     -0.012641341        1.1151498
O       0.0097235567     -0.012641343       -1.1261199
C       -0.025904763       0.03367811       0.01461293
3
# CELL(abcABC):  100.00000   100.00000   100.00000    90.00000    90.00000    90.00000  PyEPFD-Step: 67 positions{angstrom} cell{angstrom}
O      -0.0097235512      0.012641344        1.2047863
O      -0.0097235523      0.012641346       -1.1938161
C        0.025904754     -0.033678116     -0.014613053
3
# CELL(abcABC):  100.00000   100.00000   100.00000    90.00000    90.00000    90.00000  PyEPFD-Step: 68 positions{angstrom} cell{angstrom}
O        0.011280738     0.0086719527        1.1480191
O         0.01128074     0.0086719546          -1.1366
C       -0.030053292     -0.023103163      -0.01521101
3
# CELL(abcABC):  100.00000   100.00000   100.00000    90.00000    90.00000    90.00000  PyEPFD-Step: 69 positions{angstrom} cell{angstrom}
O       -0.011280734    -0.0086719497        1.1719169
O       -0.011280736    -0.0086719516        -1.183336
C        0.030053284      0.023103157      0.015210887
3
# CELL(abcABC):  100.00000   100.00000   100.00000    90.00000    90.00000    90.00000  PyEPFD-Step: 70 positions{angstrom} cell{angstrom}
O       -0.014669436      0.010434299        1.1361313
O       -0.014669438        0.0104343       -1.1119004
C        0.039081209     -0.027798272     -0.032277021
3
# CELL(abcABC):  100.00000   100.00000   100.00000    90.00000    90.00000    90.00000  PyEPFD-Step: 71 positions{angstrom} cell{angstrom}
O        0.014669441     -0.010434296        1.1838048
O        0.014669443     -0.010434297       -1.2080355
C       -0.039081218      0.027798266      0.032276898
3
# CELL(abcABC):  100.00000   100.00000   100.00000    90.00000    90.00000    90.00000  PyEPFD-Step: 72 positions{angstrom} cell{angstrom}
O      0.00018752288   -8.2854983e-05        1.1735235
O      0.00018752288   -8.2855007e-05       -1.1690688
C     -0.00049958283    0.00022073703    -0.0059339392
3
# CELL(abcABC):  100.00000   100.00000   100.00000    90.00000    90.00000    90.00000  PyEPFD-Step: 73 positions{angstrom} cell{angstrom}
O     -0.00018751845    8.2857996e-05        1.1464126
O     -0.00018751845     8.285802e-05       -1.1508672
C      0.00049957398   -0.00022074305     0.0059338163
3
# CELL(abcABC):  100.00000   100.00000   100.00000    90.00000    90.00000    90.00000  PyEPFD-Step: 74 positions{angstrom} cell{angstrom}
O       -0.013342105     -0.016273298        1.1531342
O       -0.013342108     -0.016273301         -1.16198
C        0.035545034      0.043354098      0.011783077
3
# CELL(abcABC):  100.00000   100.00000   100.00000    90.00000    90.00000    90.00000  PyEPFD-Step: 75 positions{angstrom} cell{angstrom}
O        0.013342109      0.016273301        1.1668018
O        0.013342112      0.016273304        -1.157956
C       -0.035545043     -0.043354104       -0.0117832
3
# CELL(abcABC):  100.00000   100.00000   100.00000    90.00000    90.00000    90.00000  PyEPFD-Step: 76 positions{angstrom} cell{angstrom}
O      -0.0039043101    -0.0017683642        1.1677349
O      -0.0039043109    -0.0017683647       -1.1499953
C        0.010401571     0.0047111441     -0.023630279
3
# CELL(abcABC):  100.00000   100.00000   100.00000    90.00000    90.00000    90.00000  PyEPFD-Step: 77 positions{angstrom} cell{angstrom}
O       0.0039043145     0.0017683672        1.1522012
O       0.0039043153     0.0017683677       -1.1699407
C        -0.01040158    -0.0047111501      0.023630156
3
# CELL(abcABC):  100.00000   100.00000   100.00000    90.00000    90.00000    90.00000  PyEPFD-Step: 78 positions{angstrom} cell{angstrom}
O        0.013466129     0.0037426119        1.1533291
O        0.013466131      0.003742613       -1.1434478
C       -0.035875445    -0.0099707846     -0.013162476
3
# CELL(abcABC):  100.00000   100.00000   100.00000    90.00000    90.00000    90.00000  PyEPFD-Step: 79 positions{angstrom} cell{angstrom}
O       -0.013466124    -0.0037426089         1.166607
O       -0.013466126      -0.00374261       -1.1764882
C        0.035875436     0.0099707786      0.013162353
3
# CELL(abcABC):  100.00000   100.00000   100.00000    90.00000    90.00000    90.00000  PyEPFD-Step: 80 positions{angstrom} cell{angstrom}
O     -0.00094323491      0.013009019        1.1667458
O     -0.00094323452      0.013009021       -1.1623915
C       0.0025128962     -0.034657648    -0.0058001893
3
# CELL(abcABC):  100.00000   100.00000   100.00000    90.00000    90.00000    90.00000  PyEPFD-Step: 81 positions{angstrom} cell{angstrom}
O      0.00094323934     -0.013009016        1.1531903
O      0.00094323895     -0.013009018       -1.1575445
C      -0.0025129051      0.034657642     0.0058000664
3
# CELL(abcABC):  100.00000   100.00000   100.00000    90.00000    90.00000    90.00000  PyEPFD-Step: 82 positions{angstrom} cell{angstrom}
O       0.0040772783     -0.014254295        1.1713168
O       0.0040772782     -0.014254297       -1.1565515
C       -0.010862376      0.037975221      -0.01966831
3
# CELL(abcABC):  100.00000   100.00000   100.00000    90.00000    90.00000    90.00000  PyEPFD-Step: 83 positions{angstrom} cell{angstrom}
O      -0.0040772739      0.014254298        1.1486193
O      -0.0040772738        0.0142543       -1.1633845
C        0.010862367     -0.037975227      0.019668187
3
# CELL(abcABC):  100.00000   100.00000   100.00000    90.00000    90.00000    90.00000  PyEPFD-Step: 84 positions{angstrom} cell{angstrom}
O       0.0034855867       0.01022208        1.1894837
O       0.0034855876      0.010222082       -1.1755995
C      -0.0092860368     -0.027232896     -0.018494626
3
# CELL(abcABC):  100.00000   100.00000   100.00000    90.00000    90.00000    90.00000  PyEPFD-Step: 85 positions{angstrom} cell{angstrom}
O      -0.0034855823     -0.010222077        1.1304524
O      -0.0034855832     -0.010222079       -1.1443365
C       0.0092860279       0.02723289      0.018494503
3
# CELL(abcABC):  100.00000   100.00000   100.00000    90.00000    90.00000    90.00000  PyEPFD-Step: 86 positions{angstrom} cell{angstrom}
O      -0.0014410435    -0.0072600719        1.1496616
O      -0.0014410441    -0.0072600731       -1.1414674
C       0.0038391215      0.019341738     -0.010915118
3
# CELL(abcABC):  100.00000   100.00000   100.00000    90.00000    90.00000    90.00000  PyEPFD-Step: 87 positions{angstrom} cell{angstrom}
O       0.0014410479     0.0072600749        1.1702745
O       0.0014410485     0.0072600762       -1.1784685
C      -0.0038391304     -0.019341744      0.010914995
3
# CELL(abcABC):  100.00000   100.00000   100.00000    90.00000    90.00000    90.00000  PyEPFD-Step: 88 positions{angstrom} cell{angstrom}
O        0.012609258    -0.0074867285        1.1644394
O         0.01260926    -0.0074867291       -1.1695351
C       -0.033592635      0.019945579     0.0067878318
3
# CELL(abcABC):  100.00000   100.00000   100.00000    90.00000    90.00000    90.00000  PyEPFD-Step: 89 positions{angstrom} cell{angstrom}
O       -0.012609254     0.0074867315        1.1554967
O       -0.012609255     0.0074867321       -1.1504008
C        0.033592626     -0.019945585    -0.0067879547
3
# CELL(abcABC):  100.00000   100.00000   100.00000    90.00000    90.00000    90.00000  PyEPFD-Step: 90 positions{angstrom} cell{angstrom}
O      -0.0075512461     -0.022953768        1.1613082
O      -0.0075512485     -0.022953772        -1.128698
C        0.020117465      0.061151703     -0.043438878
3
# CELL(abcABC):  100.00000   100.00000   100.00000    90.00000    90.00000    90.00000  PyEPFD-Step: 91 positions{angstrom} cell{angstrom}
O       0.0075512505      0.022953771        1.1586279
O       0.0075512529      0.022953775        -1.191238
C       -0.020117473     -0.061151709      0.043438755
3
# CELL(abcABC):  100.00000   100.00000   100.00000    90.00000    90.00000    90.00000  PyEPFD-Step: 92 positions{angstrom} cell{angstrom}
O        0.022608826    -0.0052526557        1.1541809
O        0.022608829    -0.0052526554       -1.1642206
C        -0.06023273      0.013993729       0.01337354
3
# CELL(abcABC):  100.00000   100.00000   100.00000    90.00000    90.00000    90.00000  PyEPFD-Step: 93 positions{angstrom} cell{angstrom}
O       -0.022608821     0.0052526587        1.1657552
O       -0.022608825     0.0052526584       -1.1557154
C        0.060232721     -0.013993735     -0.013373663
3
# CELL(abcABC):  100.00000   100.00000   100.00000    90.00000    90.00000    90.00000  PyEPFD-Step: 94 positions{angstrom} cell{angstrom}
O      0.00038789764     -0.010036534        1.1850767
O      0.00038789719     -0.010036536       -1.1730219
C      -0.0010334055       0.02673858      -0.01605774
3
# CELL(abcABC):  100.00000   100.00000   100.00000    90.00000    90.00000    90.00000  PyEPFD-Step: 95 positions{angstrom} cell{angstrom}
O     -0.00038789321      0.010036537        1.1348594
O     -0.00038789276      0.010036539       -1.1469141
C       0.0010333967     -0.026738586      0.016057617
3
# CELL(abcABC):  100.00000   100.00000   100.00000    90.00000    90.00000    90.00000  PyEPFD-Step: 96 positions{angstrom} cell{angstrom}
O        0.020370711    -0.0043609946        1.1884472
O        0.020370714    -0.0043609944       -1.1752228
C       -0.054270114      0.011618233     -0.017615744
3
# CELL(abcABC):  100.00000   100.00000   100.00000    90.00000    90.00000    90.00000  PyEPFD-Step: 97 positions{angstrom} cell{angstrom}
O       -0.020370707     0.0043609976        1.1314889
O        -0.02037071     0.0043609974       -1.1447132
C        0.054270105     -0.011618239      0.017615621
3