3
# CELL(abcABC):   10.58354    10.58354    10.58354    90.00000    90.00000    90.00000  Step:           0  Bead:       0 positions{angstrom}  cell{angstrom}
       O  0.00000e+00  0.00000e+00  1.15713e+00
       O  0.00000e+00  0.00000e+00 -1.15713e+00
       C  0.00000e+00  0.00000e+00 -1.58753e-06
3
# CELL(abcABC):   10.58354    10.58354    10.58354    90.00000    90.00000    90.00000  Step:           1  Bead:       0 positions{angstrom}  cell{angstrom}
       O  6.78352e-04 -1.47164e-03  1.15387e+00
       O  1.15148e-03 -1.09582e-03 -1.15780e+00
       C  1.33385e-03 -2.51286e-04  5.71484e-04
3
# CELL(abcABC):   10.58354    10.58354    10.58354    90.00000    90.00000    90.00000  Step:           2  Bead:       0 positions{angstrom}  cell{angstrom}
       O  1.13264e-03 -4.60958e-03  1.15002e+00
       O  1.65730e-03 -2.65121e-03 -1.15798e+00
       C  3.93868e-03 -5.90972e-04  1.13805e-03
3
# CELL(abcABC):   10.58354    10.58354    10.58354    90.00000    90.00000    90.00000  Step:           3  Bead:       0 positions{angstrom}  cell{angstrom}
       O  1.16353e-03 -8.44624e-03  1.14677e+00
       O  1.72059e-03 -5.04260e-03 -1.15847e+00
       C  7.38359e-03 -9.64664e-04  1.53914e-03
3
# CELL(abcABC):   10.58354    10.58354    10.58354    90.00000    90.00000    90.00000  Step:           4  Bead:       0 positions{angstrom}  cell{angstrom}
       O  1.29771e-03 -1.30027e-02  1.14371e+00
       O  5.16651e-04 -7.82431e-03 -1.15865e+00
       C  1.06623e-02  1.28345e-04  1.26402e-03
3
# CELL(abcABC):   10.58354    10.58354    10.58354    90.00000    90.00000    90.00000  Step:           5  Bead:       0 positions{angstrom}  cell{angstrom}
       O  1.25750e-03 -1.79696e-02  1.14129e+00
       O -7.29220e-04 -9.35129e-03 -1.15901e+00
       C  1.33737e-02  1.94509e-03  5.03289e-04
3
# CELL(abcABC):   10.58354    10.58354    10.58354    90.00000    90.00000    90.00000  Step:           6  Bead:       0 positions{angstrom}  cell{angstrom}
       O  1.51553e-03 -2.14373e-02  1.13943e+00
       O -2.43634e-03 -9.59188e-03 -1.15911e+00
       C  1.71806e-02  3.01235e-03 -2.02421e-04
3
# CELL(abcABC):   10.58354    10.58354    10.58354    90.00000    90.00000    90.00000  Step:           7  Bead:       0 positions{angstrom}  cell{angstrom}
       O  2.49512e-03 -2.30770e-02  1.13884e+00
       O -5.13683e-03 -9.52959e-03 -1.16005e+00
       C  2.16683e-02  2.39652e-03 -4.18937e-05
3
# CELL(abcABC):   10.58354    10.58354    10.58354    90.00000    90.00000    90.00000  Step:           8  Bead:       0 positions{angstrom}  cell{angstrom}
       O  3.75768e-03 -2.35003e-02  1.13891e+00
       O -8.44433e-03 -9.89327e-03 -1.16064e+00
       C  2.61757e-02  1.24645e-03  1.58560e-03
3
# CELL(abcABC):   10.58354    10.58354    10.58354    90.00000    90.00000    90.00000  Step:           9  Bead:       0 positions{angstrom}  cell{angstrom}
       O  5.31320e-03 -2.38888e-02  1.13931e+00
       O -1.15010e-02 -9.58075e-03 -1.16022e+00
       C  2.96132e-02 -8.83283e-04  4.01156e-03
3
# CELL(abcABC):   10.58354    10.58354    10.58354    90.00000    90.00000    90.00000  Step:          10  Bead:       0 positions{angstrom}  cell{angstrom}
       O  6.77553e-03 -2.34705e-02  1.13967e+00
       O -1.42993e-02 -1.03385e-02 -1.16010e+00
       C  3.20962e-02 -1.57401e-03  8.64770e-03
3
# CELL(abcABC):   10.58354    10.58354    10.58354    90.00000    90.00000    90.00000  Step:          11  Bead:       0 positions{angstrom}  cell{angstrom}
       O  8.43831e-03 -2.36270e-02  1.14050e+00
       O -1.73716e-02 -1.06136e-02 -1.15895e+00
       C  3.38493e-02 -1.04574e-03  1.23661e-02
3
# CELL(abcABC):   10.58354    10.58354    10.58354    90.00000    90.00000    90.00000  Step:          12  Bead:       0 positions{angstrom}  cell{angstrom}
       O  8.92096e-03 -2.25150e-02  1.14040e+00
       O -1.96537e-02 -9.74650e-03 -1.15751e+00
       C  3.37436e-02 -1.47592e-03  1.47611e-02
3
# CELL(abcABC):   10.58354    10.58354    10.58354    90.00000    90.00000    90.00000  Step:          13  Bead:       0 positions{angstrom}  cell{angstrom}
       O  8.22335e-03 -2.12945e-02  1.14058e+00
       O -2.16299e-02 -9.54345e-03 -1.15616e+00
       C  3.25190e-02 -1.42236e-03  1.61451e-02
3
# CELL(abcABC):   10.58354    10.58354    10.58354    90.00000    90.00000    90.00000  Step:          14  Bead:       0 positions{angstrom}  cell{angstrom}
       O  7.05343e-03 -2.05878e-02  1.13963e+00
       O -2.30486e-02 -7.96399e-03 -1.15539e+00
       C  3.15422e-02 -2.16875e-03  1.67867e-02
3
# CELL(abcABC):   10.58354    10.58354    10.58354    90.00000    90.00000    90.00000  Step:          15  Bead:       0 positions{angstrom}  cell{angstrom}
       O  5.27687e-03 -1.98194e-02  1.13910e+00
       O -2.46486e-02 -5.23542e-03 -1.15369e+00
       C  3.18878e-02 -3.63943e-03  1.65096e-02
3
# CELL(abcABC):   10.58354    10.58354    10.58354    90.00000    90.00000    90.00000  Step:          16  Bead:       0 positions{angstrom}  cell{angstrom}
       O  2.67334e-03 -1.95129e-02  1.13955e+00
       O -2.70368e-02 -4.45820e-04 -1.15235e+00
       C  3.35104e-02 -5.47201e-03  1.67539e-02
3
# CELL(abcABC):   10.58354    10.58354    10.58354    90.00000    90.00000    90.00000  Step:          17  Bead:       0 positions{angstrom}  cell{angstrom}
       O  9.50655e-04 -1.82282e-02  1.13981e+00
       O -2.92296e-02  5.02764e-03 -1.14990e+00
       C  3.58843e-02 -8.06431e-03  1.53067e-02
3
# CELL(abcABC):   10.58354    10.58354    10.58354    90.00000    90.00000    90.00000  Step:          18  Bead:       0 positions{angstrom}  cell{angstrom}
       O -7.83089e-04 -1.81571e-02  1.13943e+00
       O -3.04831e-02  1.06866e-02 -1.14701e+00
       C  3.78710e-02 -1.08238e-02  1.30010e-02
3
# CELL(abcABC):   10.58354    10.58354    10.58354    90.00000    90.00000    90.00000  Step:          19  Bead:       0 positions{angstrom}  cell{angstrom}
       O -1.66721e-03 -1.88926e-02  1.13994e+00
       O -3.21701e-02  1.61783e-02 -1.14507e+00
       C  4.03752e-02 -1.23557e-02  9.61074e-03
3
# CELL(abcABC):   10.58354    10.58354    10.58354    90.00000    90.00000    90.00000  Step:          20  Bead:       0 positions{angstrom}  cell{angstrom}
       O -2.72747e-03 -2.02820e-02  1.14205e+00
       O -3.45980e-02  2.04576e-02 -1.14334e+00
       C  4.38226e-02 -1.21231e-02  4.42709e-03
3
# CELL(abcABC):   10.58354    10.58354    10.58354    90.00000    90.00000    90.00000  Step:          21  Bead:       0 positions{angstrom}  cell{angstrom}
       O -3.85142e-03 -2.24198e-02  1.14463e+00
       O -3.64233e-02  2.58769e-02 -1.14124e+00
       C  4.56085e-02 -1.15415e-02 -1.02614e-03
3
# CELL(abcABC):   10.58354    10.58354    10.58354    90.00000    90.00000    90.00000  Step:          22  Bead:       0 positions{angstrom}  cell{angstrom}
       O -4.62942e-03 -2.43365e-02  1.14603e+00
       O -3.74961e-02  3.02656e-02 -1.13905e+00
       C  4.58097e-02 -9.33461e-03 -3.81337e-03
3
# CELL(abcABC):   10.58354    10.58354    10.58354    90.00000    90.00000    90.00000  Step:          23  Bead:       0 positions{angstrom}  cell{angstrom}
       O -6.34500e-03 -2.68097e-02  1.14698e+00
       O -3.75237e-02  3.43954e-02 -1.13780e+00
       C  4.61005e-02 -6.55999e-03 -3.97546e-03
3
# CELL(abcABC):   10.58354    10.58354    10.58354    90.00000    90.00000    90.00000  Step:          24  Bead:       0 positions{angstrom}  cell{angstrom}
       O -8.35251e-03 -2.91919e-02  1.14684e+00
       O -3.69052e-02  3.91337e-02 -1.13620e+00
       C  4.59826e-02 -3.48561e-03 -3.09435e-03
3
# CELL(abcABC):   10.58354    10.58354    10.58354    90.00000    90.00000    90.00000  Step:          25  Bead:       0 positions{angstrom}  cell{angstrom}
       O -1.08502e-02 -3.15948e-02  1.14716e+00
       O -3.69649e-02  4.29040e-02 -1.13515e+00
       C  4.65657e-02  1.12863e-03 -3.66524e-03
3
# CELL(abcABC):   10.58354    10.58354    10.58354    90.00000    90.00000    90.00000  Step:          26  Bead:       0 positions{angstrom}  cell{angstrom}
       O -1.27483e-02 -3.37549e-02  1.14710e+00
       O -3.72016e-02  4.63433e-02 -1.13405e+00
       C  4.54629e-02  4.76366e-03 -3.96155e-03
3
# CELL(abcABC):   10.58354    10.58354    10.58354    90.00000    90.00000    90.00000  Step:          27  Bead:       0 positions{angstrom}  cell{angstrom}
       O -1.47053e-02 -3.62252e-02  1.14784e+00
       O -3.67260e-02  4.93874e-02 -1.13425e+00
       C  4.26695e-02  8.85797e-03 -5.03863e-03
3
# CELL(abcABC):   10.58354    10.58354    10.58354    90.00000    90.00000    90.00000  Step:          28  Bead:       0 positions{angstrom}  cell{angstrom}
       O -1.71936e-02 -3.72175e-02  1.14769e+00
       O -3.63642e-02  5.15605e-02 -1.13436e+00
       C  3.91356e-02  1.30651e-02 -6.32796e-03
3
# CELL(abcABC):   10.58354    10.58354    10.58354    90.00000    90.00000    90.00000  Step:          29  Bead:       0 positions{angstrom}  cell{angstrom}
       O -2.04698e-02 -3.78700e-02  1.14851e+00
       O -3.60541e-02  5.11403e-02 -1.13481e+00
       C  3.60701e-02  1.78609e-02 -7.97277e-03
3
# CELL(abcABC):   10.58354    10.58354    10.58354    90.00000    90.00000    90.00000  Step:          30  Bead:       0 positions{angstrom}  cell{angstrom}
       O -2.37563e-02 -4.01660e-02  1.14998e+00
       O -3.62109e-02  5.10748e-02 -1.13457e+00
       C  3.35033e-02  2.12952e-02 -8.82604e-03
3
# CELL(abcABC):   10.58354    10.58354    10.58354    90.00000    90.00000    90.00000  Step:          31  Bead:       0 positions{angstrom}  cell{angstrom}
       O -2.68471e-02 -4.20263e-02  1.15349e+00
       O -3.66909e-02  5.02546e-02 -1.13326e+00
       C  3.18157e-02  2.40712e-02 -9.78574e-03
3
# CELL(abcABC):   10.58354    10.58354    10.58354    90.00000    90.00000    90.00000  Step:          32  Bead:       0 positions{angstrom}  cell{angstrom}
       O -2.95925e-02 -4.36268e-02  1.15676e+00
       O -3.72775e-02  4.92472e-02 -1.13211e+00
       C  2.90118e-02  2.71660e-02 -9.63336e-03
3
# CELL(abcABC):   10.58354    10.58354    10.58354    90.00000    90.00000    90.00000  Step:          33  Bead:       0 positions{angstrom}  cell{angstrom}
       O -3.20373e-02 -4.41539e-02  1.15954e+00
       O -3.80671e-02  4.76160e-02 -1.13171e+00
       C  2.56711e-02  3.00345e-02 -8.33920e-03
3
# CELL(abcABC):   10.58354    10.58354    10.58354    90.00000    90.00000    90.00000  Step:          34  Bead:       0 positions{angstrom}  cell{angstrom}
       O -3.60706e-02 -4.51264e-02  1.16221e+00
       O -3.83331e-02  4.59452e-02 -1.13183e+00
       C  2.24997e-02  3.40119e-02 -7.00002e-03
3
# CELL(abcABC):   10.58354    10.58354    10.58354    90.00000    90.00000    90.00000  Step:          35  Bead:       0 positions{angstrom}  cell{angstrom}
       O -4.05840e-02 -4.64707e-02  1.16417e+00
       O -3.74508e-02  4.31032e-02 -1.13114e+00
       C  1.87592e-02  3.81781e-02 -5.86674e-03
3
# CELL(abcABC):   10.58354    10.58354    10.58354    90.00000    90.00000    90.00000  Step:          36  Bead:       0 positions{angstrom}  cell{angstrom}
       O -4.32405e-02 -4.69556e-02  1.16574e+00
       O -3.65297e-02  3.98492e-02 -1.13116e+00
       C  1.47982e-02  4.03412e-02 -2.14407e-03
3
# CELL(abcABC):   10.58354    10.58354    10.58354    90.00000    90.00000    90.00000  Step:          37  Bead:       0 positions{angstrom}  cell{angstrom}
       O -4.56470e-02 -4.74716e-02  1.16784e+00
       O -3.35949e-02  3.61631e-02 -1.13262e+00
       C  9.69968e-03  4.14969e-02  1.34555e-03
3
# CELL(abcABC):   10.58354    10.58354    10.58354    90.00000    90.00000    90.00000  Step:          38  Bead:       0 positions{angstrom}  cell{angstrom}
       O -4.64734e-02 -4.73030e-02  1.17094e+00
       O -3.08133e-02  3.08485e-02 -1.13604e+00
       C  4.93106e-03  4.13376e-02  3.44778e-03
3
# CELL(abcABC):   10.58354    10.58354    10.58354    90.00000    90.00000    90.00000  Step:          39  Bead:       0 positions{angstrom}  cell{angstrom}
       O -4.61147e-02 -4.79603e-02  1.17482e+00
       O -2.93196e-02  2.53966e-02 -1.14051e+00
       C  7.91766e-04  4.18928e-02  4.80970e-03
3
# CELL(abcABC):   10.58354    10.58354    10.58354    90.00000    90.00000    90.00000  Step:          40  Bead:       0 positions{angstrom}  cell{angstrom}
       O -4.51836e-02 -4.91752e-02  1.17876e+00
       O -2.83956e-02  2.06826e-02 -1.14504e+00
       C -2.19627e-03  4.31147e-02  5.40340e-03
3
# CELL(abcABC):   10.58354    10.58354    10.58354    90.00000    90.00000    90.00000  Step:          41  Bead:       0 positions{angstrom}  cell{angstrom}
       O -4.48521e-02 -5.06069e-02  1.18272e+00
       O -2.65354e-02  1.63213e-02 -1.15102e+00
       C -3.08282e-03  4.42768e-02  6.96997e-03
3
# CELL(abcABC):   10.58354    10.58354    10.58354    90.00000    90.00000    90.00000  Step:          42  Bead:       0 positions{angstrom}  cell{angstrom}
       O -4.38543e-02 -5.25716e-02  1.18640e+00
       O -2.51650e-02  1.13652e-02 -1.15723e+00
       C -2.69058e-03  4.63956e-02  9.07178e-03
3
# CELL(abcABC):   10.58354    10.58354    10.58354    90.00000    90.00000    90.00000  Step:          43  Bead:       0 positions{angstrom}  cell{angstrom}
       O -4.34658e-02 -5.47939e-02  1.18951e+00
       O -2.28301e-02  7.79678e-03 -1.16226e+00
       C -2.94548e-03  4.80806e-02  1.01522e-02
3
# CELL(abcABC):   10.58354    10.58354    10.58354    90.00000    90.00000    90.00000  Step:          44  Bead:       0 positions{angstrom}  cell{angstrom}
       O -4.28958e-02 -5.74495e-02  1.19333e+00
       O -1.87165e-02  5.88971e-03 -1.16665e+00
       C -3.98749e-03  4.99061e-02  1.04051e-02
3
# CELL(abcABC):   10.58354    10.58354    10.58354    90.00000    90.00000    90.00000  Step:          45  Bead:       0 positions{angstrom}  cell{angstrom}
       O -4.31085e-02 -5.85245e-02  1.19717e+00
       O -1.22810e-02  3.88905e-03 -1.17058e+00
       C -5.35486e-03  5.18869e-02  1.00639e-02
3
# CELL(abcABC):   10.58354    10.58354    10.58354    90.00000    90.00000    90.00000  Step:          46  Bead:       0 positions{angstrom}  cell{angstrom}
       O -4.19773e-02 -5.98648e-02  1.19942e+00
       O -5.56843e-03  2.58575e-03 -1.17471e+00
       C -7.59415e-03  5.47480e-02  1.01074e-02
3
# CELL(abcABC):   10.58354    10.58354    10.58354    90.00000    90.00000    90.00000  Step:          47  Bead:       0 positions{angstrom}  cell{angstrom}
       O -4.12432e-02 -6.11851e-02  1.20031e+00
       O  2.19032e-03  2.25332e-03 -1.17895e+00
       C -9.26065e-03  5.73001e-02  1.07588e-02
3
# CELL(abcABC):   10.58354    10.58354    10.58354    90.00000    90.00000    90.00000  Step:          48  Bead:       0 positions{angstrom}  cell{angstrom}
       O -4.15437e-02 -6.14995e-02  1.20081e+00
       O  1.05529e-02  1.55553e-03 -1.18445e+00
       C -9.88469e-03  5.93960e-02  1.18533e-02
3
# CELL(abcABC):   10.58354    10.58354    10.58354    90.00000    90.00000    90.00000  Step:          49  Bead:       0 positions{angstrom}  cell{angstrom}
       O -4.16520e-02 -6.15944e-02  1.20062e+00
       O  1.87786e-02  1.27161e-03 -1.19017e+00
       C -1.11353e-02  6.01130e-02  1.32287e-02
3
# CELL(abcABC):   10.58354    10.58354    10.58354    90.00000    90.00000    90.00000  Step:          50  Bead:       0 positions{angstrom}  cell{angstrom}
       O -4.05878e-02 -6.14668e-02  1.20094e+00
       O  2.60118e-02 -5.59472e-04 -1.19728e+00
       C -1.34693e-02  6.05380e-02  1.49326e-02
3
# CELL(abcABC):   10.58354    10.58354    10.58354    90.00000    90.00000    90.00000  Step:          51  Bead:       0 positions{angstrom}  cell{angstrom}
       O -3.89822e-02 -6.16730e-02  1.20119e+00
       O  3.19574e-02 -2.21515e-03 -1.20305e+00
       C -1.46839e-02  6.06524e-02  1.65494e-02
3
# CELL(abcABC):   10.58354    10.58354    10.58354    90.00000    90.00000    90.00000  Step:          52  Bead:       0 positions{angstrom}  cell{angstrom}
       O -3.71723e-02 -6.19158e-02  1.20011e+00
       O  3.71534e-02 -3.33882e-03 -1.20704e+00
       C -1.51789e-02  5.99068e-02  1.83512e-02
3
# CELL(abcABC):   10.58354    10.58354    10.58354    90.00000    90.00000    90.00000  Step:          53  Bead:       0 positions{angstrom}  cell{angstrom}
       O -3.41782e-02 -6.14633e-02  1.19795e+00
       O  4.15698e-02 -5.14625e-03 -1.20968e+00
       C -1.46685e-02  6.05880e-02  2.02099e-02
3
# CELL(abcABC):   10.58354    10.58354    10.58354    90.00000    90.00000    90.00000  Step:          54  Bead:       0 positions{angstrom}  cell{angstrom}
       O -3.09035e-02 -6.03233e-02  1.19493e+00
       O  4.57823e-02 -7.31368e-03 -1.21143e+00
       C -1.33533e-02  6.11913e-02  2.31614e-02
3
# CELL(abcABC):   10.58354    10.58354    10.58354    90.00000    90.00000    90.00000  Step:          55  Bead:       0 positions{angstrom}  cell{angstrom}
       O -2.76430e-02 -5.93858e-02  1.19280e+00
       O  4.91849e-02 -9.92154e-03 -1.21200e+00
       C -1.21265e-02  6.08299e-02  2.55384e-02
3
# CELL(abcABC):   10.58354    10.58354    10.58354    90.00000    90.00000    90.00000  Step:          56  Bead:       0 positions{angstrom}  cell{angstrom}
       O -2.49676e-02 -5.84998e-02  1.18977e+00
       O  5.15847e-02 -1.34702e-02 -1.21059e+00
       C -1.07438e-02  5.85004e-02  2.68304e-02
3
# CELL(abcABC):   10.58354    10.58354    10.58354    90.00000    90.00000    90.00000  Step:          57  Bead:       0 positions{angstrom}  cell{angstrom}
       O -2.18280e-02 -5.73164e-02  1.18611e+00
       O  5.39014e-02 -1.69200e-02 -1.20717e+00
       C -9.28575e-03  5.34768e-02  2.55600e-02
3
# CELL(abcABC):   10.58354    10.58354    10.58354    90.00000    90.00000    90.00000  Step:          58  Bead:       0 positions{angstrom}  cell{angstrom}
       O -1.88424e-02 -5.59157e-02  1.18165e+00
       O  5.75599e-02 -2.02018e-02 -1.20317e+00
       C -6.93732e-03  4.74793e-02  2.43756e-02
3
# CELL(abcABC):   10.58354    10.58354    10.58354    90.00000    90.00000    90.00000  Step:          59  Bead:       0 positions{angstrom}  cell{angstrom}
       O -1.50644e-02 -5.50353e-02  1.17592e+00
       O  6.07685e-02 -2.36558e-02 -1.19704e+00
       C -6.03396e-03  4.21102e-02  2.14172e-02
3
# CELL(abcABC):   10.58354    10.58354    10.58354    90.00000    90.00000    90.00000  Step:          60  Bead:       0 positions{angstrom}  cell{angstrom}
       O -1.16323e-02 -5.37432e-02  1.17137e+00
       O  6.19720e-02 -2.65433e-02 -1.19140e+00
       C -4.85638e-03  3.56681e-02  1.74203e-02
3
# CELL(abcABC):   10.58354    10.58354    10.58354    90.00000    90.00000    90.00000  Step:          61  Bead:       0 positions{angstrom}  cell{angstrom}
       O -9.60876e-03 -5.25236e-02  1.16786e+00
       O  6.29210e-02 -2.93982e-02 -1.18589e+00
       C -4.03856e-03  3.00659e-02  1.31836e-02
3
# CELL(abcABC):   10.58354    10.58354    10.58354    90.00000    90.00000    90.00000  Step:          62  Bead:       0 positions{angstrom}  cell{angstrom}
       O -7.95011e-03 -5.10991e-02  1.16372e+00
       O  6.32810e-02 -3.26334e-02 -1.17876e+00
       C -2.73664e-03  2.52304e-02  8.38535e-03
3
# CELL(abcABC):   10.58354    10.58354    10.58354    90.00000    90.00000    90.00000  Step:          63  Bead:       0 positions{angstrom}  cell{angstrom}
       O -5.91787e-03 -4.85317e-02  1.15928e+00
       O  6.32743e-02 -3.58765e-02 -1.17140e+00
       C -4.06901e-04  2.12685e-02  3.22085e-03
3
# CELL(abcABC):   10.58354    10.58354    10.58354    90.00000    90.00000    90.00000  Step:          64  Bead:       0 positions{angstrom}  cell{angstrom}
       O -4.76704e-03 -4.55096e-02  1.15595e+00
       O  6.27809e-02 -3.77564e-02 -1.16496e+00
       C  3.44197e-03  1.71605e-02 -2.36906e-03
3
# CELL(abcABC):   10.58354    10.58354    10.58354    90.00000    90.00000    90.00000  Step:          65  Bead:       0 positions{angstrom}  cell{angstrom}
       O -5.34646e-03 -4.12229e-02  1.15232e+00
       O  6.18268e-02 -3.95039e-02 -1.15864e+00
       C  9.35582e-03  1.35955e-02 -8.38098e-03
3
# CELL(abcABC):   10.58354    10.58354    10.58354    90.00000    90.00000    90.00000  Step:          66  Bead:       0 positions{angstrom}  cell{angstrom}
       O -5.63689e-03 -3.57821e-02  1.14656e+00
       O  6.05772e-02 -4.12379e-02 -1.15214e+00
       C  1.45764e-02  9.77848e-03 -1.40381e-02
3
# CELL(abcABC):   10.58354    10.58354    10.58354    90.00000    90.00000    90.00000  Step:          67  Bead:       0 positions{angstrom}  cell{angstrom}
       O -6.06874e-03 -3.00765e-02  1.13963e+00
       O  5.85713e-02 -4.30938e-02 -1.14617e+00
       C  1.89697e-02  6.00218e-03 -1.84225e-02
3
# CELL(abcABC):   10.58354    10.58354    10.58354    90.00000    90.00000    90.00000  Step:          68  Bead:       0 positions{angstrom}  cell{angstrom}
       O -6.20048e-03 -2.41543e-02  1.13381e+00
       O  5.67832e-02 -4.40308e-02 -1.14208e+00
       C  2.34100e-02  2.05201e-03 -2.31855e-02
3
# CELL(abcABC):   10.58354    10.58354    10.58354    90.00000    90.00000    90.00000  Step:          69  Bead:       0 positions{angstrom}  cell{angstrom}
       O -5.15130e-03 -1.85286e-02  1.12868e+00
       O  5.48685e-02 -4.49818e-02 -1.13974e+00
       C  2.82007e-02 -9.38160e-04 -2.72548e-02
3
# CELL(abcABC):   10.58354    10.58354    10.58354    90.00000    90.00000    90.00000  Step:          70  Bead:       0 positions{angstrom}  cell{angstrom}
       O -2.29537e-03 -1.27631e-02  1.12449e+00
       O  5.24292e-02 -4.48981e-02 -1.13752e+00
       C  3.15950e-02 -4.32393e-03 -3.12063e-02
3
# CELL(abcABC):   10.58354    10.58354    10.58354    90.00000    90.00000    90.00000  Step:          71  Bead:       0 positions{angstrom}  cell{angstrom}
       O  8.91604e-04 -7.43884e-03  1.12054e+00
       O  5.07634e-02 -4.42273e-02 -1.13597e+00
       C  3.49048e-02 -7.59014e-03 -3.44515e-02
3
# CELL(abcABC):   10.58354    10.58354    10.58354    90.00000    90.00000    90.00000  Step:          72  Bead:       0 positions{angstrom}  cell{angstrom}
       O  5.99826e-03 -1.95013e-03  1.11823e+00
       O  4.98956e-02 -4.41331e-02 -1.13627e+00
       C  3.78139e-02 -1.08197e-02 -3.69891e-02
3
# CELL(abcABC):   10.58354    10.58354    10.58354    90.00000    90.00000    90.00000  Step:          73  Bead:       0 positions{angstrom}  cell{angstrom}
       O  1.13169e-02  3.45982e-03  1.11621e+00
       O  5.00034e-02 -4.37154e-02 -1.13697e+00
       C  4.12224e-02 -1.45012e-02 -3.87988e-02
3
# CELL(abcABC):   10.58354    10.58354    10.58354    90.00000    90.00000    90.00000  Step:          74  Bead:       0 positions{angstrom}  cell{angstrom}
       O  1.74389e-02  8.65867e-03  1.11509e+00
       O  5.06462e-02 -4.41882e-02 -1.13732e+00
       C  4.39397e-02 -1.66449e-02 -3.97299e-02
3
# CELL(abcABC):   10.58354    10.58354    10.58354    90.00000    90.00000    90.00000  Step:          75  Bead:       0 positions{angstrom}  cell{angstrom}
       O  2.27619e-02  1.47378e-02  1.11589e+00
       O  5.11179e-02 -4.53511e-02 -1.13768e+00
       C  4.68335e-02 -1.85653e-02 -4.06620e-02
3
# CELL(abcABC):   10.58354    10.58354    10.58354    90.00000    90.00000    90.00000  Step:          76  Bead:       0 positions{angstrom}  cell{angstrom}
       O  2.81337e-02  2.16791e-02  1.11776e+00
       O  5.15268e-02 -4.68279e-02 -1.13710e+00
       C  4.83279e-02 -2.06572e-02 -4.12194e-02
3
# CELL(abcABC):   10.58354    10.58354    10.58354    90.00000    90.00000    90.00000  Step:          77  Bead:       0 positions{angstrom}  cell{angstrom}
       O  3.47317e-02  2.84202e-02  1.12063e+00
       O  5.09844e-02 -4.76158e-02 -1.13676e+00
       C  4.86387e-02 -2.17738e-02 -3.96150e-02
3
# CELL(abcABC):   10.58354    10.58354    10.58354    90.00000    90.00000    90.00000  Step:          78  Bead:       0 positions{angstrom}  cell{angstrom}
       O  4.05398e-02  3.57112e-02  1.12438e+00
       O  5.07250e-02 -4.79182e-02 -1.13725e+00
       C  4.89470e-02 -2.34416e-02 -3.49469e-02
3
# CELL(abcABC):   10.58354    10.58354    10.58354    90.00000    90.00000    90.00000  Step:          79  Bead:       0 positions{angstrom}  cell{angstrom}
       O  4.61775e-02  4.27033e-02  1.12837e+00
       O  5.05369e-02 -4.74934e-02 -1.13799e+00
       C  4.88290e-02 -2.58977e-02 -2.98068e-02
3
# CELL(abcABC):   10.58354    10.58354    10.58354    90.00000    90.00000    90.00000  Step:          80  Bead:       0 positions{angstrom}  cell{angstrom}
       O  5.02554e-02  4.87821e-02  1.13295e+00
       O  5.13125e-02 -4.74595e-02 -1.13964e+00
       C  4.92931e-02 -2.85510e-02 -2.36516e-02
3
# CELL(abcABC):   10.58354    10.58354    10.58354    90.00000    90.00000    90.00000  Step:          81  Bead:       0 positions{angstrom}  cell{angstrom}
       O  5.38319e-02  5.29557e-02  1.13683e+00
       O  5.26217e-02 -4.71575e-02 -1.14194e+00
       C  4.85645e-02 -3.12804e-02 -1.78498e-02
3
# CELL(abcABC):   10.58354    10.58354    10.58354    90.00000    90.00000    90.00000  Step:          82  Bead:       0 positions{angstrom}  cell{angstrom}
       O  5.59215e-02  5.65306e-02  1.14066e+00
       O  5.37777e-02 -4.73728e-02 -1.14493e+00
       C  4.85564e-02 -3.36427e-02 -1.21516e-02
3
# CELL(abcABC):   10.58354    10.58354    10.58354    90.00000    90.00000    90.00000  Step:          83  Bead:       0 positions{angstrom}  cell{angstrom}
       O  5.72132e-02  5.95636e-02  1.14471e+00
       O  5.43613e-02 -4.86750e-02 -1.14942e+00
       C  4.82899e-02 -3.52504e-02 -5.69031e-03
3
# CELL(abcABC):   10.58354    10.58354    10.58354    90.00000    90.00000    90.00000  Step:          84  Bead:       0 positions{angstrom}  cell{angstrom}
       O  5.81391e-02  6.03673e-02  1.14971e+00
       O  5.46064e-02 -4.99447e-02 -1.15423e+00
       C  4.68773e-02 -3.51500e-02 -5.94762e-04
3
# CELL(abcABC):   10.58354    10.58354    10.58354    90.00000    90.00000    90.00000  Step:          85  Bead:       0 positions{angstrom}  cell{angstrom}
       O  5.83692e-02  6.17748e-02  1.15399e+00
       O  5.39092e-02 -5.11285e-02 -1.15910e+00
       C  4.76575e-02 -3.29948e-02  3.66252e-03
3
# CELL(abcABC):   10.58354    10.58354    10.58354    90.00000    90.00000    90.00000  Step:          86  Bead:       0 positions{angstrom}  cell{angstrom}
       O  5.84157e-02  6.25250e-02  1.15841e+00
       O  5.32522e-02 -5.14821e-02 -1.16296e+00
       C  4.85985e-02 -2.99657e-02  5.78700e-03
3
# CELL(abcABC):   10.58354    10.58354    10.58354    90.00000    90.00000    90.00000  Step:          87  Bead:       0 positions{angstrom}  cell{angstrom}
       O  5.77019e-02  6.41043e-02  1.16155e+00
       O  5.33520e-02 -5.25591e-02 -1.16625e+00
       C  4.98457e-02 -2.81462e-02  8.34010e-03
3
# CELL(abcABC):   10.58354    10.58354    10.58354    90.00000    90.00000    90.00000  Step:          88  Bead:       0 positions{angstrom}  cell{angstrom}
       O  5.80092e-02  6.67336e-02  1.16471e+00
       O  5.35283e-02 -5.51269e-02 -1.17096e+00
       C  4.99193e-02 -2.59226e-02  1.12790e-02
3
# CELL(abcABC):   10.58354    10.58354    10.58354    90.00000    90.00000    90.00000  Step:          89  Bead:       0 positions{angstrom}  cell{angstrom}
       O  5.95414e-02  6.94400e-02  1.16719e+00
       O  5.35564e-02 -5.74425e-02 -1.17485e+00
       C  4.90942e-02 -2.37482e-02  1.36675e-02
3
# CELL(abcABC):   10.58354    10.58354    10.58354    90.00000    90.00000    90.00000  Step:          90  Bead:       0 positions{angstrom}  cell{angstrom}
       O  6.04623e-02  7.19391e-02  1.17022e+00
       O  5.32245e-02 -5.90152e-02 -1.17873e+00
       C  4.78186e-02 -2.23201e-02  1.56465e-02
3
# CELL(abcABC):   10.58354    10.58354    10.58354    90.00000    90.00000    90.00000  Step:          91  Bead:       0 positions{angstrom}  cell{angstrom}
       O  6.09797e-02  7.34641e-02  1.17317e+00
       O  5.29161e-02 -5.95674e-02 -1.18336e+00
       C  4.55792e-02 -2.05270e-02  1.83110e-02
3
# CELL(abcABC):   10.58354    10.58354    10.58354    90.00000    90.00000    90.00000  Step:          92  Bead:       0 positions{angstrom}  cell{angstrom}
       O  6.14913e-02  7.52592e-02  1.17413e+00
       O  5.13587e-02 -6.04297e-02 -1.18540e+00
       C  4.38654e-02 -1.76152e-02  2.13184e-02
3
# CELL(abcABC):   10.58354    10.58354    10.58354    90.00000    90.00000    90.00000  Step:          93  Bead:       0 positions{angstrom}  cell{angstrom}
       O  6.16088e-02  7.90246e-02  1.17466e+00
       O  4.82439e-02 -6.07776e-02 -1.18726e+00
       C  4.28934e-02 -1.62341e-02  2.43386e-02
3
# CELL(abcABC):   10.58354    10.58354    10.58354    90.00000    90.00000    90.00000  Step:          94  Bead:       0 positions{angstrom}  cell{angstrom}
       O  6.12499e-02  8.31206e-02  1.17544e+00
       O  4.34363e-02 -6.19236e-02 -1.18932e+00
       C  4.14986e-02 -1.48039e-02  2.58863e-02
3
# CELL(abcABC):   10.58354    10.58354    10.58354    90.00000    90.00000    90.00000  Step:          95  Bead:       0 positions{angstrom}  cell{angstrom}
       O  5.97951e-02  8.82756e-02  1.17667e+00
       O  3.79746e-02 -6.35416e-02 -1.19033e+00
       C  4.03227e-02 -1.46626e-02  2.52736e-02
3
# CELL(abcABC):   10.58354    10.58354    10.58354    90.00000    90.00000    90.00000  Step:          96  Bead:       0 positions{angstrom}  cell{angstrom}
       O  5.85095e-02  9.26353e-02  1.17821e+00
       O  3.24141e-02 -6.61040e-02 -1.19105e+00
       C  3.93265e-02 -1.44518e-02  2.37317e-02
3
# CELL(abcABC):   10.58354    10.58354    10.58354    90.00000    90.00000    90.00000  Step:          97  Bead:       0 positions{angstrom}  cell{angstrom}
       O  5.76871e-02  9.59660e-02  1.17827e+00
       O  2.67112e-02 -6.85799e-02 -1.19043e+00
       C  3.87054e-02 -1.39346e-02  2.19876e-02
3
# CELL(abcABC):   10.58354    10.58354    10.58354    90.00000    90.00000    90.00000  Step:          98  Bead:       0 positions{angstrom}  cell{angstrom}
       O  5.59197e-02  9.92096e-02  1.17681e+00
       O  2.09534e-02 -7.18487e-02 -1.18821e+00
       C  3.89922e-02 -1.38815e-02  1.96572e-02
3