3
# CELL(abcABC):   10.58354    10.58354    10.58354    90.00000    90.00000    90.00000  PyEPFD-Step: 0 positions{angstrom} cell{angstrom}
O       -0.018588843    -0.0061619076        1.1350956
O        -0.01858892    -0.0061619329       -1.1556353
C        0.049524333      0.016416533      0.027361294
3
# CELL(abcABC):   10.58354    10.58354    10.58354    90.00000    90.00000    90.00000  PyEPFD-Step: 1 positions{angstrom} cell{angstrom}
O        0.018588843     0.0061619076        1.1791701
O         0.01858892     0.0061619329       -1.1586272
C       -0.049524333     -0.016416533     -0.027364469
3
# CELL(abcABC):   10.58354    10.58354    10.58354    90.00000    90.00000    90.00000  PyEPFD-Step: 2 positions{angstrom} cell{angstrom}
O       -0.017193283     -0.015293679        1.1527207
O       -0.017193354     -0.015293742       -1.1464258
C        0.045806286      0.040745368    -0.0083849424
3
# CELL(abcABC):   10.58354    10.58354    10.58354    90.00000    90.00000    90.00000  PyEPFD-Step: 3 positions{angstrom} cell{angstrom}
O        0.017193283      0.015293679        1.1615449
O        0.017193354      0.015293742       -1.1678367
C       -0.045806286     -0.040745368     0.0083817673
3
# CELL(abcABC):   10.58354    10.58354    10.58354    90.00000    90.00000    90.00000  PyEPFD-Step: 4 positions{angstrom} cell{angstrom}
O        0.038934747      0.010248751        1.1098925
O        0.038934907      0.010248793       -1.1181729
C        -0.10372982     -0.027304687      0.011030806
3
# CELL(abcABC):   10.58354    10.58354    10.58354    90.00000    90.00000    90.00000  PyEPFD-Step: 5 positions{angstrom} cell{angstrom}
O       -0.038934747     -0.010248751        1.2043732
O       -0.038934907     -0.010248793       -1.1960896
C         0.10372982      0.027304687     -0.011033981
3
# CELL(abcABC):   10.58354    10.58354    10.58354    90.00000    90.00000    90.00000  PyEPFD-Step: 6 positions{angstrom} cell{angstrom}
O       -0.022278672      0.033315954        1.1776386
O       -0.022278764      0.033316091       -1.1696657
C        0.059354763     -0.088760251     -0.010620095
3
# CELL(abcABC):   10.58354    10.58354    10.58354    90.00000    90.00000    90.00000  PyEPFD-Step: 7 positions{angstrom} cell{angstrom}
O        0.022278672     -0.033315954        1.1366271
O        0.022278764     -0.033316091       -1.1445968
C       -0.059354763      0.088760251       0.01061692
3
# CELL(abcABC):   10.58354    10.58354    10.58354    90.00000    90.00000    90.00000  PyEPFD-Step: 8 positions{angstrom} cell{angstrom}
O         0.02271018   -0.00022372051        1.1714007
O        0.022710273   -0.00022372143       -1.1854261
C       -0.060504384    0.00059603543       0.01868372
3
# CELL(abcABC):   10.58354    10.58354    10.58354    90.00000    90.00000    90.00000  PyEPFD-Step: 9 positions{angstrom} cell{angstrom}
O        -0.02271018    0.00022372051         1.142865
O       -0.022710273    0.00022372143       -1.1288364
C        0.060504384   -0.00059603543     -0.018686895
3
# CELL(abcABC):   10.58354    10.58354    10.58354    90.00000    90.00000    90.00000  PyEPFD-Step: 10 positions{angstrom} cell{angstrom}
O       0.0025384831     0.0049459019         1.183869
O       0.0025384936     0.0049459223       -1.1828521
C       -0.006763018     -0.013176855    -0.0013540934
3
# CELL(abcABC):   10.58354    10.58354    10.58354    90.00000    90.00000    90.00000  PyEPFD-Step: 11 positions{angstrom} cell{angstrom}
O      -0.0025384831    -0.0049459019        1.1303967
O      -0.0025384936    -0.0049459223       -1.1314105
C        0.006763018      0.013176855     0.0013509184
3
# CELL(abcABC):   10.58354    10.58354    10.58354    90.00000    90.00000    90.00000  PyEPFD-Step: 12 positions{angstrom} cell{angstrom}
O      -0.0011255501     0.0081173603        1.1216725
O      -0.0011255548     0.0081173937       -1.1323375
C       0.0029986868     -0.021626244      0.014207272
3
# CELL(abcABC):   10.58354    10.58354    10.58354    90.00000    90.00000    90.00000  PyEPFD-Step: 13 positions{angstrom} cell{angstrom}
O       0.0011255501    -0.0081173603        1.1925932
O       0.0011255548    -0.0081173937        -1.181925
C      -0.0029986868      0.021626244     -0.014210448
3
# CELL(abcABC):   10.58354    10.58354    10.58354    90.00000    90.00000    90.00000  PyEPFD-Step: 14 positions{angstrom} cell{angstrom}
O      -0.0031108341      0.030993115        1.1709599
O       -0.003110847      0.030993243       -1.1698224
C       0.0082878737     -0.082571752    -0.0015147564
3
# CELL(abcABC):   10.58354    10.58354    10.58354    90.00000    90.00000    90.00000  PyEPFD-Step: 15 positions{angstrom} cell{angstrom}
O       0.0031108341     -0.030993115        1.1433058
O        0.003110847     -0.030993243       -1.1444401
C      -0.0082878737      0.082571752     0.0015115813
3
# CELL(abcABC):   10.58354    10.58354    10.58354    90.00000    90.00000    90.00000  PyEPFD-Step: 16 positions{angstrom} cell{angstrom}
O       -0.012537642    -0.0066913606        1.1325639
O       -0.012537694    -0.0066913881       -1.1624922
C        0.033402744        0.0178271      0.039867843
3
# CELL(abcABC):   10.58354    10.58354    10.58354    90.00000    90.00000    90.00000  PyEPFD-Step: 17 positions{angstrom} cell{angstrom}
O        0.012537642     0.0066913606        1.1817018
O        0.012537694     0.0066913881       -1.1517703
C       -0.033402744       -0.0178271     -0.039871018
3
# CELL(abcABC):   10.58354    10.58354    10.58354    90.00000    90.00000    90.00000  PyEPFD-Step: 18 positions{angstrom} cell{angstrom}
O       -0.007297436      0.021728557        1.1312394
O      -0.0072974661      0.021728646       -1.1370835
C        0.019441804     -0.057889146     0.0077854446
3
# CELL(abcABC):   10.58354    10.58354    10.58354    90.00000    90.00000    90.00000  PyEPFD-Step: 19 positions{angstrom} cell{angstrom}
O        0.007297436     -0.021728557        1.1830263
O       0.0072974661     -0.021728646        -1.177179
C       -0.019441804      0.057889146    -0.0077886197
3
# CELL(abcABC):   10.58354    10.58354    10.58354    90.00000    90.00000    90.00000  PyEPFD-Step: 20 positions{angstrom} cell{angstrom}
O     -0.00073441156      0.028811042        1.1362707
O     -0.00073441458       0.02881116       -1.1101291
C       0.0019566168     -0.076758279     -0.034822608
3
# CELL(abcABC):   10.58354    10.58354    10.58354    90.00000    90.00000    90.00000  PyEPFD-Step: 21 positions{angstrom} cell{angstrom}
O      0.00073441156     -0.028811042         1.177995
O      0.00073441458      -0.02881116       -1.2041334
C      -0.0019566168      0.076758279      0.034819433
3
# CELL(abcABC):   10.58354    10.58354    10.58354    90.00000    90.00000    90.00000  PyEPFD-Step: 22 positions{angstrom} cell{angstrom}
O      -0.0041944207     -0.027052837        1.1581561
O       -0.004194438     -0.027052949       -1.1377832
C        0.011174761      0.072074076     -0.027138166
3
# CELL(abcABC):   10.58354    10.58354    10.58354    90.00000    90.00000    90.00000  PyEPFD-Step: 23 positions{angstrom} cell{angstrom}
O       0.0041944207      0.027052837        1.1561096
O        0.004194438      0.027052949       -1.1764794
C       -0.011174761     -0.072074076      0.027134991
3
# CELL(abcABC):   10.58354    10.58354    10.58354    90.00000    90.00000    90.00000  PyEPFD-Step: 24 positions{angstrom} cell{angstrom}
O      -0.0079502454     -0.016334833        1.1222374
O      -0.0079502781     -0.016334901       -1.1182861
C        0.021181017      0.043519207    -0.0052629705
3
# CELL(abcABC):   10.58354    10.58354    10.58354    90.00000    90.00000    90.00000  PyEPFD-Step: 25 positions{angstrom} cell{angstrom}
O       0.0079502454      0.016334833        1.1920283
O       0.0079502781      0.016334901       -1.1959764
C       -0.021181017     -0.043519207     0.0052597954
3
# CELL(abcABC):   10.58354    10.58354    10.58354    90.00000    90.00000    90.00000  PyEPFD-Step: 26 positions{angstrom} cell{angstrom}
O       -0.017670025    -0.0064302504        1.1659004
O       -0.017670098    -0.0064302769       -1.1860888
C         0.04707642      0.017131451      0.026893414
3
# CELL(abcABC):   10.58354    10.58354    10.58354    90.00000    90.00000    90.00000  PyEPFD-Step: 27 positions{angstrom} cell{angstrom}
O        0.017670025     0.0064302504        1.1483653
O        0.017670098     0.0064302769       -1.1281737
C        -0.04707642     -0.017131451     -0.026896589
3
# CELL(abcABC):   10.58354    10.58354    10.58354    90.00000    90.00000    90.00000  PyEPFD-Step: 28 positions{angstrom} cell{angstrom}
O       -0.012450473     -0.024853515          1.16855
O       -0.012450525     -0.024853618       -1.1796595
C        0.033170509      0.066214651      0.014799499
3
# CELL(abcABC):   10.58354    10.58354    10.58354    90.00000    90.00000    90.00000  PyEPFD-Step: 29 positions{angstrom} cell{angstrom}
O        0.012450473      0.024853515        1.1457157
O        0.012450525      0.024853618        -1.134603
C       -0.033170509     -0.066214651     -0.014802674
3
# CELL(abcABC):   10.58354    10.58354    10.58354    90.00000    90.00000    90.00000  PyEPFD-Step: 30 positions{angstrom} cell{angstrom}
O       -0.014913418      0.018074958        1.1717376
O       -0.014913479      0.018075032       -1.1659412
C        0.039732277     -0.048155241    -0.0077208457
3
# CELL(abcABC):   10.58354    10.58354    10.58354    90.00000    90.00000    90.00000  PyEPFD-Step: 31 positions{angstrom} cell{angstrom}
O        0.014913418     -0.018074958         1.142528
O        0.014913479     -0.018075032       -1.1483213
C       -0.039732277      0.048155241     0.0077176706
3
# CELL(abcABC):   10.58354    10.58354    10.58354    90.00000    90.00000    90.00000  PyEPFD-Step: 32 positions{angstrom} cell{angstrom}
O        0.020727018       0.02067687        1.1646001
O        0.020727103      0.020676955       -1.1518978
C        -0.05522085     -0.055087247     -0.016920093
3
# CELL(abcABC):   10.58354    10.58354    10.58354    90.00000    90.00000    90.00000  PyEPFD-Step: 33 positions{angstrom} cell{angstrom}
O       -0.020727018      -0.02067687        1.1496656
O       -0.020727103     -0.020676955       -1.1623647
C         0.05522085      0.055087247      0.016916918
3
# CELL(abcABC):   10.58354    10.58354    10.58354    90.00000    90.00000    90.00000  PyEPFD-Step: 34 positions{angstrom} cell{angstrom}
O      0.00063381066     0.0051991884        1.1800472
O      0.00063381327     0.0051992098        -1.187504
C      -0.0016885962      -0.01385166     0.0099336575
3
# CELL(abcABC):   10.58354    10.58354    10.58354    90.00000    90.00000    90.00000  PyEPFD-Step: 35 positions{angstrom} cell{angstrom}
O     -0.00063381066    -0.0051991884        1.1342185
O     -0.00063381327    -0.0051992098       -1.1267585
C       0.0016885962       0.01385166    -0.0099368326
3
# CELL(abcABC):   10.58354    10.58354    10.58354    90.00000    90.00000    90.00000  PyEPFD-Step: 36 positions{angstrom} cell{angstrom}
O        -0.01355625     -0.014139759          1.13426
O       -0.013556306     -0.014139818        -1.155404
C        0.036116514      0.037671098        0.0281663
3
# CELL(abcABC):   10.58354    10.58354    10.58354    90.00000    90.00000    90.00000  PyEPFD-Step: 37 positions{angstrom} cell{angstrom}
O         0.01355625      0.014139759        1.1800057
O        0.013556306      0.014139818       -1.1588585
C       -0.036116514     -0.037671098     -0.028169475
3
# CELL(abcABC):   10.58354    10.58354    10.58354    90.00000    90.00000    90.00000  PyEPFD-Step: 38 positions{angstrom} cell{angstrom}
O       0.0032574666      0.011046697        1.1607146
O         0.00325748      0.011046742       -1.1611799
C      -0.0086785314     -0.029430571    0.00062035776
3
# CELL(abcABC):   10.58354    10.58354    10.58354    90.00000    90.00000    90.00000  PyEPFD-Step: 39 positions{angstrom} cell{angstrom}
O      -0.0032574666     -0.011046697        1.1535511
O        -0.00325748     -0.011046742       -1.1530826
C       0.0086785314      0.029430571   -0.00062353282
3
# CELL(abcABC):   10.58354    10.58354    10.58354    90.00000    90.00000    90.00000  PyEPFD-Step: 40 positions{angstrom} cell{angstrom}
O       -0.011677396      0.016171061        1.1536025
O       -0.011677444      0.016171127       -1.1552353
C        0.031110879     -0.043082885     0.0021755473
3
# CELL(abcABC):   10.58354    10.58354    10.58354    90.00000    90.00000    90.00000  PyEPFD-Step: 41 positions{angstrom} cell{angstrom}
O        0.011677396     -0.016171061        1.1606632
O        0.011677444     -0.016171127       -1.1590272
C       -0.031110879      0.043082885    -0.0021787224
3
# CELL(abcABC):   10.58354    10.58354    10.58354    90.00000    90.00000    90.00000  PyEPFD-Step: 42 positions{angstrom} cell{angstrom}
O      -0.0017171013    -0.0079746431        1.1606021
O      -0.0017171084    -0.0079746759       -1.1726941
C       0.0045746955      0.021246017      0.016108264
3
# CELL(abcABC):   10.58354    10.58354    10.58354    90.00000    90.00000    90.00000  PyEPFD-Step: 43 positions{angstrom} cell{angstrom}
O       0.0017171013     0.0079746431        1.1536636
O       0.0017171084     0.0079746759       -1.1415684
C      -0.0045746955     -0.021246017     -0.016111439
3
# CELL(abcABC):   10.58354    10.58354    10.58354    90.00000    90.00000    90.00000  PyEPFD-Step: 44 positions{angstrom} cell{angstrom}
O       0.0026318612      0.011931432        1.1366804
O        0.002631872      0.011931481       -1.1494419
C      -0.0070117956     -0.031787681      0.017000038
3
# CELL(abcABC):   10.58354    10.58354    10.58354    90.00000    90.00000    90.00000  PyEPFD-Step: 45 positions{angstrom} cell{angstrom}
O      -0.0026318612     -0.011931432        1.1775853
O       -0.002631872     -0.011931481       -1.1648207
C       0.0070117956      0.031787681     -0.017003213
3
# CELL(abcABC):   10.58354    10.58354    10.58354    90.00000    90.00000    90.00000  PyEPFD-Step: 46 positions{angstrom} cell{angstrom}
O       0.0096570271    -0.0028089513        1.1424497
O       0.0096570669    -0.0028089628       -1.1453071
C       -0.025728219     0.0074835984     0.0038068508
3
# CELL(abcABC):   10.58354    10.58354    10.58354    90.00000    90.00000    90.00000  PyEPFD-Step: 47 positions{angstrom} cell{angstrom}
O      -0.0096570271     0.0028089513         1.171816
O      -0.0096570669     0.0028089628       -1.1689554
C        0.025728219    -0.0074835984    -0.0038100259
3
# CELL(abcABC):   10.58354    10.58354    10.58354    90.00000    90.00000    90.00000  PyEPFD-Step: 48 positions{angstrom} cell{angstrom}
O      -0.0043121429     0.0077674492        1.1586162
O      -0.0043121606     0.0077674812       -1.1537983
C        0.011488396     -0.020694012     -0.006417383
3
# CELL(abcABC):   10.58354    10.58354    10.58354    90.00000    90.00000    90.00000  PyEPFD-Step: 49 positions{angstrom} cell{angstrom}
O       0.0043121429    -0.0077674492        1.1556495
O       0.0043121606    -0.0077674812       -1.1604642
C       -0.011488396      0.020694012     0.0064142079
3
# CELL(abcABC):   10.58354    10.58354    10.58354    90.00000    90.00000    90.00000  PyEPFD-Step: 50 positions{angstrom} cell{angstrom}
O      -0.0064602227    -0.0081600356        1.1520153
O      -0.0064602493    -0.0081600692       -1.1565995
C        0.017211303      0.021739939     0.0061070688
3
# CELL(abcABC):   10.58354    10.58354    10.58354    90.00000    90.00000    90.00000  PyEPFD-Step: 51 positions{angstrom} cell{angstrom}
O       0.0064602227     0.0081600356        1.1622504
O       0.0064602493     0.0081600692        -1.157663
C       -0.017211303     -0.021739939    -0.0061102439
3
# CELL(abcABC):   10.58354    10.58354    10.58354    90.00000    90.00000    90.00000  PyEPFD-Step: 52 positions{angstrom} cell{angstrom}
O       -0.014837746     0.0009594326        1.1879595
O       -0.014837807    0.00095943655       -1.1782789
C        0.039530672    -0.0025561171     -0.012895022
3
# CELL(abcABC):   10.58354    10.58354    10.58354    90.00000    90.00000    90.00000  PyEPFD-Step: 53 positions{angstrom} cell{angstrom}
O        0.014837746    -0.0009594326        1.1263062
O        0.014837807   -0.00095943655       -1.1359836
C       -0.039530672     0.0025561171      0.012891846
3
# CELL(abcABC):   10.58354    10.58354    10.58354    90.00000    90.00000    90.00000  PyEPFD-Step: 54 positions{angstrom} cell{angstrom}
O        0.014108278     0.0013571181        1.1357243
O        0.014108336     0.0013571236       -1.1473216
C       -0.037587225    -0.0036156293      0.015449248
3
# CELL(abcABC):   10.58354    10.58354    10.58354    90.00000    90.00000    90.00000  PyEPFD-Step: 55 positions{angstrom} cell{angstrom}
O       -0.014108278    -0.0013571181        1.1785414
O       -0.014108336    -0.0013571236       -1.1669409
C        0.037587225     0.0036156293     -0.015452423
3
# CELL(abcABC):   10.58354    10.58354    10.58354    90.00000    90.00000    90.00000  PyEPFD-Step: 56 positions{angstrom} cell{angstrom}
O       0.0017920615    -0.0026998718         1.183401
O       0.0017920689    -0.0026998829       -1.1653146
C      -0.0047744042     0.0071929892     -0.024092247
3
# CELL(abcABC):   10.58354    10.58354    10.58354    90.00000    90.00000    90.00000  PyEPFD-Step: 57 positions{angstrom} cell{angstrom}
O      -0.0017920615     0.0026998718        1.1308647
O      -0.0017920689     0.0026998829       -1.1489479
C       0.0047744042    -0.0071929892      0.024089072
3
# CELL(abcABC):   10.58354    10.58354    10.58354    90.00000    90.00000    90.00000  PyEPFD-Step: 58 positions{angstrom} cell{angstrom}
O       0.0069720335      0.014270732        1.1499464
O       0.0069720622      0.014270791       -1.1408054
C       -0.018574868     -0.038020035     -0.012176212
3
# CELL(abcABC):   10.58354    10.58354    10.58354    90.00000    90.00000    90.00000  PyEPFD-Step: 59 positions{angstrom} cell{angstrom}
O      -0.0069720335     -0.014270732        1.1643193
O      -0.0069720622     -0.014270791       -1.1734571
C        0.018574868      0.038020035      0.012173037
3
# CELL(abcABC):   10.58354    10.58354    10.58354    90.00000    90.00000    90.00000  PyEPFD-Step: 60 positions{angstrom} cell{angstrom}
O      -0.0068166231     0.0048159799        1.1428515
O      -0.0068166512     0.0048159997       -1.1616154
C        0.018160824     -0.012830717      0.024995775
3
# CELL(abcABC):   10.58354    10.58354    10.58354    90.00000    90.00000    90.00000  PyEPFD-Step: 61 positions{angstrom} cell{angstrom}
O       0.0068166231    -0.0048159799        1.1714142
O       0.0068166512    -0.0048159997       -1.1526471
C       -0.018160824      0.012830717      -0.02499895
3
# CELL(abcABC):   10.58354    10.58354    10.58354    90.00000    90.00000    90.00000  PyEPFD-Step: 62 positions{angstrom} cell{angstrom}
O        0.018869371     0.0093951997         1.153663
O        0.018869448     0.0093952383       -1.1500582
C       -0.050271713     -0.025030659    -0.0048013277
3
# CELL(abcABC):   10.58354    10.58354    10.58354    90.00000    90.00000    90.00000  PyEPFD-Step: 63 positions{angstrom} cell{angstrom}
O       -0.018869371    -0.0093951997        1.1606027
O       -0.018869448    -0.0093952383       -1.1642043
C        0.050271713      0.025030659     0.0047981526
3
# CELL(abcABC):   10.58354    10.58354    10.58354    90.00000    90.00000    90.00000  PyEPFD-Step: 64 positions{angstrom} cell{angstrom}
O       -0.012827809      0.010246117        1.1105835
O       -0.012827862      0.010246159       -1.0878873
C        0.034175805     -0.027297671     -0.030232917
3
# CELL(abcABC):   10.58354    10.58354    10.58354    90.00000    90.00000    90.00000  PyEPFD-Step: 65 positions{angstrom} cell{angstrom}
O        0.012827809     -0.010246117        1.2036822
O        0.012827862     -0.010246159       -1.2263752
C       -0.034175805      0.027297671      0.030229742
3
# CELL(abcABC):   10.58354    10.58354    10.58354    90.00000    90.00000    90.00000  PyEPFD-Step: 66 positions{angstrom} cell{angstrom}
O       -0.011156579      0.011808075        1.2002752
O       -0.011156625      0.011808124       -1.2282838
C        0.029723321     -0.031459034      0.037310669
3
# CELL(abcABC):   10.58354    10.58354    10.58354    90.00000    90.00000    90.00000  PyEPFD-Step: 67 positions{angstrom} cell{angstrom}
O        0.011156579     -0.011808075        1.1139904
O        0.011156625     -0.011808124       -1.0859787
C       -0.029723321      0.031459034     -0.037313844
3
# CELL(abcABC):   10.58354    10.58354    10.58354    90.00000    90.00000    90.00000  PyEPFD-Step: 68 positions{angstrom} cell{angstrom}
O       0.0013025503      -0.03394609        1.2005081
O       0.0013025557     -0.033946229       -1.1641844
C      -0.0034702502      0.090439056     -0.048386153
3
# CELL(abcABC):   10.58354    10.58354    10.58354    90.00000    90.00000    90.00000  PyEPFD-Step: 69 positions{angstrom} cell{angstrom}
O      -0.0013025503       0.03394609        1.1137576
O      -0.0013025557      0.033946229       -1.1500781
C       0.0034702502     -0.090439056      0.048382978
3
# CELL(abcABC):   10.58354    10.58354    10.58354    90.00000    90.00000    90.00000  PyEPFD-Step: 70 positions{angstrom} cell{angstrom}
O        0.014569303    -0.0041892985          1.14319
O        0.014569363    -0.0041893157       -1.1840139
C       -0.038815487      0.011161115      0.054381904
3
# CELL(abcABC):   10.58354    10.58354    10.58354    90.00000    90.00000    90.00000  PyEPFD-Step: 71 positions{angstrom} cell{angstrom}
O       -0.014569303     0.0041892985        1.1710757
O       -0.014569363     0.0041893157       -1.1302486
C        0.038815487     -0.011161115     -0.054385079
3
# CELL(abcABC):   10.58354    10.58354    10.58354    90.00000    90.00000    90.00000  PyEPFD-Step: 72 positions{angstrom} cell{angstrom}
O        0.018955343     -0.014688376        1.1667195
O        0.018955421     -0.014688437       -1.1767706
C       -0.050500761      0.039132721      0.013389477
3
# CELL(abcABC):   10.58354    10.58354    10.58354    90.00000    90.00000    90.00000  PyEPFD-Step: 73 positions{angstrom} cell{angstrom}
O       -0.018955343      0.014688376        1.1475461
O       -0.018955421      0.014688437       -1.1374919
C        0.050500761     -0.039132721     -0.013392652
3
# CELL(abcABC):   10.58354    10.58354    10.58354    90.00000    90.00000    90.00000  PyEPFD-Step: 74 positions{angstrom} cell{angstrom}
O       0.0087528807     0.0094882577        1.1826846
O       0.0087529168     0.0094882967       -1.1827224
C       -0.023319395     -0.025278584    5.0837511e-05
3
# CELL(abcABC):   10.58354    10.58354    10.58354    90.00000    90.00000    90.00000  PyEPFD-Step: 75 positions{angstrom} cell{angstrom}
O      -0.0087528807    -0.0094882577         1.131581
O      -0.0087529168    -0.0094882967       -1.1315401
C        0.023319395      0.025278584   -5.4012575e-05
3
# CELL(abcABC):   10.58354    10.58354    10.58354    90.00000    90.00000    90.00000  PyEPFD-Step: 76 positions{angstrom} cell{angstrom}
O        0.030758331     0.0021143552        1.1352062
O        0.030758457     0.0021143639       -1.1480146
C       -0.081946239    -0.0056330579       0.01706261
3
# CELL(abcABC):   10.58354    10.58354    10.58354    90.00000    90.00000    90.00000  PyEPFD-Step: 77 positions{angstrom} cell{angstrom}
O       -0.030758331    -0.0021143552        1.1790595
O       -0.030758457    -0.0021143639       -1.1662479
C        0.081946239     0.0056330579     -0.017065785
3
# CELL(abcABC):   10.58354    10.58354    10.58354    90.00000    90.00000    90.00000  PyEPFD-Step: 78 positions{angstrom} cell{angstrom}
O        0.012973976    -0.0035008188        1.1424999
O        0.012974029    -0.0035008332       -1.1530888
C       -0.034565222     0.0093268694      0.014105984
3
# CELL(abcABC):   10.58354    10.58354    10.58354    90.00000    90.00000    90.00000  PyEPFD-Step: 79 positions{angstrom} cell{angstrom}
O       -0.012973976     0.0035008188        1.1717658
O       -0.012974029     0.0035008332       -1.1611737
C        0.034565222    -0.0093268694     -0.014109159
3
# CELL(abcABC):   10.58354    10.58354    10.58354    90.00000    90.00000    90.00000  PyEPFD-Step: 80 positions{angstrom} cell{angstrom}
O      -0.0029593413      0.013528461        1.1491577
O      -0.0029593535      0.013528517       -1.1534697
C       0.0078842671      -0.03604248     0.0057444409
3
# CELL(abcABC):   10.58354    10.58354    10.58354    90.00000    90.00000    90.00000  PyEPFD-Step: 81 positions{angstrom} cell{angstrom}
O       0.0029593413     -0.013528461         1.165108
O       0.0029593535     -0.013528517       -1.1607928
C      -0.0078842671       0.03604248    -0.0057476159
3
# CELL(abcABC):   10.58354    10.58354    10.58354    90.00000    90.00000    90.00000  PyEPFD-Step: 82 positions{angstrom} cell{angstrom}
O       0.0037849049      -0.01380984        1.1555032
O       0.0037849205     -0.013809897       -1.1558754
C       -0.010083731      0.036792129    0.00049637937
3
# CELL(abcABC):   10.58354    10.58354    10.58354    90.00000    90.00000    90.00000  PyEPFD-Step: 83 positions{angstrom} cell{angstrom}
O      -0.0037849049       0.01380984        1.1587625
O      -0.0037849205      0.013809897       -1.1583871
C        0.010083731     -0.036792129   -0.00049955443
3
# CELL(abcABC):   10.58354    10.58354    10.58354    90.00000    90.00000    90.00000  PyEPFD-Step: 84 positions{angstrom} cell{angstrom}
O       -0.010984988     0.0067424584        1.1742934
O       -0.010985034     0.0067424861       -1.1748711
C        0.029266169     -0.017963235     0.0007700937
3
# CELL(abcABC):   10.58354    10.58354    10.58354    90.00000    90.00000    90.00000  PyEPFD-Step: 85 positions{angstrom} cell{angstrom}
O        0.010984988    -0.0067424584        1.1399723
O        0.010985034    -0.0067424861       -1.1393914
C       -0.029266169      0.017963235   -0.00077326876
3
# CELL(abcABC):   10.58354    10.58354    10.58354    90.00000    90.00000    90.00000  PyEPFD-Step: 86 positions{angstrom} cell{angstrom}
O       0.0030397652    0.00099830679        1.1431104
O       0.0030397778     0.0009983109       -1.1375118
C      -0.0080985322    -0.0026596855    -0.0074573217
3
# CELL(abcABC):   10.58354    10.58354    10.58354    90.00000    90.00000    90.00000  PyEPFD-Step: 87 positions{angstrom} cell{angstrom}
O      -0.0030397652   -0.00099830679        1.1711553
O      -0.0030397778    -0.0009983109       -1.1767507
C       0.0080985322     0.0026596855     0.0074541467
3
# CELL(abcABC):   10.58354    10.58354    10.58354    90.00000    90.00000    90.00000  PyEPFD-Step: 88 positions{angstrom} cell{angstrom}
O       0.0085367981     -0.011864672        1.1801337
O       0.0085368333     -0.011864721       -1.1544226
C       -0.022743708      0.031609818     -0.034249136
3
# CELL(abcABC):   10.58354    10.58354    10.58354    90.00000    90.00000    90.00000  PyEPFD-Step: 89 positions{angstrom} cell{angstrom}
O      -0.0085367981      0.011864672        1.1341319
O      -0.0085368333      0.011864721       -1.1598399
C        0.022743708     -0.031609818      0.034245961
3
# CELL(abcABC):   10.58354    10.58354    10.58354    90.00000    90.00000    90.00000  PyEPFD-Step: 90 positions{angstrom} cell{angstrom}
O       0.0026017676     0.0043209703        1.1400912
O       0.0026017783      0.004320988       -1.1301983
C      -0.0069316203     -0.011511914     -0.013177684
3
# CELL(abcABC):   10.58354    10.58354    10.58354    90.00000    90.00000    90.00000  PyEPFD-Step: 91 positions{angstrom} cell{angstrom}
O      -0.0026017676    -0.0043209703        1.1741745
O      -0.0026017783     -0.004320988       -1.1840642
C       0.0069316203      0.011511914      0.013174509
3
# CELL(abcABC):   10.58354    10.58354    10.58354    90.00000    90.00000    90.00000  PyEPFD-Step: 92 positions{angstrom} cell{angstrom}
O       0.0020316552      0.025845259         1.160634
O       0.0020316636      0.025845365       -1.1535583
C      -0.0054127288      -0.06885685    -0.0094250256
3
# CELL(abcABC):   10.58354    10.58354    10.58354    90.00000    90.00000    90.00000  PyEPFD-Step: 93 positions{angstrom} cell{angstrom}
O      -0.0020316552     -0.025845259        1.1536317
O      -0.0020316636     -0.025845365       -1.1607043
C       0.0054127288       0.06885685     0.0094218506
3
# CELL(abcABC):   10.58354    10.58354    10.58354    90.00000    90.00000    90.00000  PyEPFD-Step: 94 positions{angstrom} cell{angstrom}
O       -0.021400984     0.0012101665          1.17818
O       -0.021401072     0.0012101715       -1.1665914
C        0.057016428    -0.0032241215     -0.015436579
3
# CELL(abcABC):   10.58354    10.58354    10.58354    90.00000    90.00000    90.00000  PyEPFD-Step: 95 positions{angstrom} cell{angstrom}
O        0.021400984    -0.0012101665        1.1360857
O        0.021401072    -0.0012101715       -1.1476711
C       -0.057016428     0.0032241215      0.015433404
3
# CELL(abcABC):   10.58354    10.58354    10.58354    90.00000    90.00000    90.00000  PyEPFD-Step: 96 positions{angstrom} cell{angstrom}
O       -0.011683158     0.0038642179         1.164995
O       -0.011683206     0.0038642338       -1.1599983
C        0.031126229     -0.010295036    -0.0066556286
3
# CELL(abcABC):   10.58354    10.58354    10.58354    90.00000    90.00000    90.00000  PyEPFD-Step: 97 positions{angstrom} cell{angstrom}
O        0.011683158    -0.0038642179        1.1492707
O        0.011683206    -0.0038642338       -1.1542642
C       -0.031126229      0.010295036     0.0066524535
3