3
# CELL(abcABC):   10.58354    10.58354    10.58354    90.00000    90.00000    90.00000  PyEPFD-Step: 0 positions{angstrom} cell{angstrom}
O       -0.020628325     0.0042840988        1.1898675
O        -0.02062841     0.0042841165       -1.1990001
C        0.054957913     -0.011413681      0.012166018
3
# CELL(abcABC):   10.58354    10.58354    10.58354    90.00000    90.00000    90.00000  PyEPFD-Step: 1 positions{angstrom} cell{angstrom}
O      -0.0033526046   -0.00078434182        1.1719284
O      -0.0033526184   -0.00078434505       -1.1766126
C       0.0089319978     0.0020896408     0.0062403005
3
# CELL(abcABC):   10.58354    10.58354    10.58354    90.00000    90.00000    90.00000  PyEPFD-Step: 2 positions{angstrom} cell{angstrom}
O        0.029627794     0.0021297153        1.1480111
O        0.029627916     0.0021297241       -1.1569602
C       -0.078934269    -0.0056739802      0.011921537
3
# CELL(abcABC):   10.58354    10.58354    10.58354    90.00000    90.00000    90.00000  PyEPFD-Step: 3 positions{angstrom} cell{angstrom}
O       0.0049587606      0.027113145        1.1518901
O       0.0049587811      0.027113256       -1.1377858
C       -0.013211113     -0.072234747     -0.018787752
3
# CELL(abcABC):   10.58354    10.58354    10.58354    90.00000    90.00000    90.00000  PyEPFD-Step: 4 positions{angstrom} cell{angstrom}
O      -0.0070481249     -0.013583435        1.1463875
O      -0.0070481539     -0.013583491       -1.1607678
C         0.01877759      0.036188942      0.019156464
3
# CELL(abcABC):   10.58354    10.58354    10.58354    90.00000    90.00000    90.00000  PyEPFD-Step: 5 positions{angstrom} cell{angstrom}
O      -0.0049777282      0.018903019        1.1347015
O      -0.0049777487      0.018903096       -1.1411929
C        0.013261647     -0.050361358     0.0086477812
3
# CELL(abcABC):   10.58354    10.58354    10.58354    90.00000    90.00000    90.00000  PyEPFD-Step: 6 positions{angstrom} cell{angstrom}
O       0.0032517322    0.00023713542          1.14143
O       0.0032517456     0.0002371364       -1.1701511
C      -0.0086632537   -0.00063177537      0.038259734
3
# CELL(abcABC):   10.58354    10.58354    10.58354    90.00000    90.00000    90.00000  PyEPFD-Step: 7 positions{angstrom} cell{angstrom}
O       -0.014197063     -0.023970038        1.1581754
O       -0.014197122     -0.023970136       -1.1681853
C        0.037823768      0.063860892      0.013334698
3
# CELL(abcABC):   10.58354    10.58354    10.58354    90.00000    90.00000    90.00000  PyEPFD-Step: 8 positions{angstrom} cell{angstrom}
O      -0.0018503765    -0.0097803094        1.1319284
O      -0.0018503841    -0.0097803496       -1.1187768
C       0.0049297667      0.026056667     -0.017518687
3
# CELL(abcABC):   10.58354    10.58354    10.58354    90.00000    90.00000    90.00000  PyEPFD-Step: 9 positions{angstrom} cell{angstrom}
O        0.017446322    -0.0061096313        1.1542637
O        0.017446394    -0.0061096564       -1.1484401
C       -0.046480432      0.016277259    -0.0077571217
3
# CELL(abcABC):   10.58354    10.58354    10.58354    90.00000    90.00000    90.00000  PyEPFD-Step: 10 positions{angstrom} cell{angstrom}
O       -0.012345714    -0.0010323112        1.1425719
O       -0.012345765    -0.0010323154       -1.1430561
C        0.032891408     0.0027502799    0.00064552929
3
# CELL(abcABC):   10.58354    10.58354    10.58354    90.00000    90.00000    90.00000  PyEPFD-Step: 11 positions{angstrom} cell{angstrom}
O        0.006398659     0.0051817035        1.1478754
O       0.0063986853     0.0051817248       -1.1605423
C       -0.017047285     -0.013805077      0.016874045
3
# CELL(abcABC):   10.58354    10.58354    10.58354    90.00000    90.00000    90.00000  PyEPFD-Step: 12 positions{angstrom} cell{angstrom}
O        0.013641079       0.02556484        1.1629842
O        0.013641135      0.025564945       -1.1470786
C       -0.036342517     -0.068109759     -0.021187331
3
# CELL(abcABC):   10.58354    10.58354    10.58354    90.00000    90.00000    90.00000  PyEPFD-Step: 13 positions{angstrom} cell{angstrom}
O        -0.02120508     -0.017687529        1.1692869
O       -0.021205167     -0.017687602       -1.1335435
C        0.056494502      0.047123054      -0.04761304
3
# CELL(abcABC):   10.58354    10.58354    10.58354    90.00000    90.00000    90.00000  PyEPFD-Step: 14 positions{angstrom} cell{angstrom}
O       0.0048061779     -0.012591424        1.1397863
O       0.0048061977     -0.012591475       -1.1349405
C       -0.012804603      0.033546028    -0.0064545238
3
# CELL(abcABC):   10.58354    10.58354    10.58354    90.00000    90.00000    90.00000  PyEPFD-Step: 15 positions{angstrom} cell{angstrom}
O       -0.029717752    -0.0012542872        1.1644568
O       -0.029717875    -0.0012542924       -1.1463773
C        0.079173934     0.0033416678     -0.024083205
3
# CELL(abcABC):   10.58354    10.58354    10.58354    90.00000    90.00000    90.00000  PyEPFD-Step: 16 positions{angstrom} cell{angstrom}
O        -0.01082869     -0.012400263        1.1660321
O       -0.010828735     -0.012400314       -1.1424375
C        0.028849759      0.033036738     -0.031429743
3
# CELL(abcABC):   10.58354    10.58354    10.58354    90.00000    90.00000    90.00000  PyEPFD-Step: 17 positions{angstrom} cell{angstrom}
O       -0.021070509      0.019357236        1.1571183
O       -0.021070595      0.019357316       -1.1442522
C        0.056135977     -0.051571482     -0.017138328
3
# CELL(abcABC):   10.58354    10.58354    10.58354    90.00000    90.00000    90.00000  PyEPFD-Step: 18 positions{angstrom} cell{angstrom}
O       0.0097986591      0.016869349        1.1435949
O       0.0097986994      0.016869419       -1.1647681
C       -0.026105554     -0.044943263      0.028205326
3
# CELL(abcABC):   10.58354    10.58354    10.58354    90.00000    90.00000    90.00000  PyEPFD-Step: 19 positions{angstrom} cell{angstrom}
O       -0.024803346    -0.0077992451        1.1635065
O       -0.024803449    -0.0077992772       -1.1767939
C        0.066080991      0.020778722      0.017700518
3
# CELL(abcABC):   10.58354    10.58354    10.58354    90.00000    90.00000    90.00000  PyEPFD-Step: 20 positions{angstrom} cell{angstrom}
O      0.00057660176     -0.023168886        1.1559812
O      0.00057660414     -0.023168981       -1.1448148
C      -0.0015361804      0.061726466     -0.014874232
3
# CELL(abcABC):   10.58354    10.58354    10.58354    90.00000    90.00000    90.00000  PyEPFD-Step: 21 positions{angstrom} cell{angstrom}
O       0.0019938028      0.006967177        1.1486421
O        0.001993811     0.0069672056       -1.1487034
C      -0.0053118825     -0.018561929    8.2187975e-05
3
# CELL(abcABC):   10.58354    10.58354    10.58354    90.00000    90.00000    90.00000  PyEPFD-Step: 22 positions{angstrom} cell{angstrom}
O        0.023121216      0.028669076        1.1451648
O        0.023121311      0.028669194       -1.1613798
C       -0.061599464     -0.076380054      0.021600381
3
# CELL(abcABC):   10.58354    10.58354    10.58354    90.00000    90.00000    90.00000  PyEPFD-Step: 23 positions{angstrom} cell{angstrom}
O         0.02112465     -0.015521572        1.1410363
O        0.021124737     -0.015521636        -1.153697
C       -0.056280221       0.04135252      0.016865792
3
# CELL(abcABC):   10.58354    10.58354    10.58354    90.00000    90.00000    90.00000  PyEPFD-Step: 24 positions{angstrom} cell{angstrom}
O       -0.014063267   -0.00081321222        1.1583983
O       -0.014063325   -0.00081321556       -1.1602696
C        0.037467308     0.0021665572     0.0024933238
3
# CELL(abcABC):   10.58354    10.58354    10.58354    90.00000    90.00000    90.00000  PyEPFD-Step: 25 positions{angstrom} cell{angstrom}
O         0.01598253      0.035577541        1.1442454
O        0.015982596      0.035577687       -1.1605233
C       -0.042580602     -0.094785563      0.021684256
3
# CELL(abcABC):   10.58354    10.58354    10.58354    90.00000    90.00000    90.00000  PyEPFD-Step: 26 positions{angstrom} cell{angstrom}
O       0.0024642113     0.0058097737         1.173269
O       0.0024642214     0.0058097976       -1.1709354
C      -0.0065651432     -0.015478379    -0.0031081032
3
# CELL(abcABC):   10.58354    10.58354    10.58354    90.00000    90.00000    90.00000  PyEPFD-Step: 27 positions{angstrom} cell{angstrom}
O      -0.0060826329      0.012864347        1.1221166
O       -0.006082658        0.0128644       -1.1337697
C         0.01620533      -0.03427315      0.015523604
3
# CELL(abcABC):   10.58354    10.58354    10.58354    90.00000    90.00000    90.00000  PyEPFD-Step: 28 positions{angstrom} cell{angstrom}
O      -0.0096661512    -0.0012828403        1.1959595
O       -0.009666191    -0.0012828455       -1.1874396
C        0.025752527     0.0034177386     -0.011348813
3
# CELL(abcABC):   10.58354    10.58354    10.58354    90.00000    90.00000    90.00000  PyEPFD-Step: 29 positions{angstrom} cell{angstrom}
O       -0.038385066    -0.0054128667        1.1403362
O       -0.038385224     -0.005412889       -1.1353918
C         0.10226536      0.014420941    -0.0065858682
3
# CELL(abcABC):   10.58354    10.58354    10.58354    90.00000    90.00000    90.00000  PyEPFD-Step: 30 positions{angstrom} cell{angstrom}
O       -0.017716274      0.010341381        1.1640793
O       -0.017716347      0.010341424       -1.1704529
C        0.047199638     -0.027551472     0.0084907799
3
# CELL(abcABC):   10.58354    10.58354    10.58354    90.00000    90.00000    90.00000  PyEPFD-Step: 31 positions{angstrom} cell{angstrom}
O     -9.4110636e-05    -0.0084380619        1.1579941
O     -9.4111024e-05    -0.0084380966       -1.1467185
C      0.00025072924      0.022480656     -0.015019609
3
# CELL(abcABC):   10.58354    10.58354    10.58354    90.00000    90.00000    90.00000  PyEPFD-Step: 32 positions{angstrom} cell{angstrom}
O       0.0042198107     -0.010952428        1.1658174
O        0.004219828     -0.010952473       -1.1480691
C       -0.011242405      0.029179421     -0.023641924
3
# CELL(abcABC):   10.58354    10.58354    10.58354    90.00000    90.00000    90.00000  PyEPFD-Step: 33 positions{angstrom} cell{angstrom}
O       -0.017913595     -0.010035164        1.1335761
O       -0.017913669     -0.010035205       -1.1404199
C        0.047725338       0.02673565     0.0091170232
3
# CELL(abcABC):   10.58354    10.58354    10.58354    90.00000    90.00000    90.00000  PyEPFD-Step: 34 positions{angstrom} cell{angstrom}
O       0.0010629671     0.0065257079        1.1627386
O       0.0010629714     0.0065257348       -1.1589668
C      -0.0028319532     -0.017385769    -0.0050238249
3
# CELL(abcABC):   10.58354    10.58354    10.58354    90.00000    90.00000    90.00000  PyEPFD-Step: 35 positions{angstrom} cell{angstrom}
O        0.017480642     -0.016373004        1.1769204
O        0.017480714     -0.016373071       -1.1951499
C       -0.046571866      0.043620901      0.024284069
3
# CELL(abcABC):   10.58354    10.58354    10.58354    90.00000    90.00000    90.00000  PyEPFD-Step: 36 positions{angstrom} cell{angstrom}
O       -0.013416024     -0.012997533        1.1749778
O       -0.013416079     -0.012997587       -1.1773584
C        0.035742924      0.034627984     0.0031716836
3
# CELL(abcABC):   10.58354    10.58354    10.58354    90.00000    90.00000    90.00000  PyEPFD-Step: 37 positions{angstrom} cell{angstrom}
O        -0.01831904     0.0035368643        1.1103928
O       -0.018319115     0.0035368788       -1.1022971
C        0.048805524    -0.0094229017     -0.010783723
3
# CELL(abcABC):   10.58354    10.58354    10.58354    90.00000    90.00000    90.00000  PyEPFD-Step: 38 positions{angstrom} cell{angstrom}
O       0.0016389463     0.0019422622        1.1562708
O       0.0016389531     0.0019422702       -1.1359163
C      -0.0043664752    -0.0051745683     -0.027113584
3
# CELL(abcABC):   10.58354    10.58354    10.58354    90.00000    90.00000    90.00000  PyEPFD-Step: 39 positions{angstrom} cell{angstrom}
O      -0.0076693276    -0.0048165696        1.1413382
O      -0.0076693591    -0.0048165894       -1.1633578
C        0.020432596      0.012832288      0.029332723
3
# CELL(abcABC):   10.58354    10.58354    10.58354    90.00000    90.00000    90.00000  PyEPFD-Step: 40 positions{angstrom} cell{angstrom}
O       -0.034633655   -0.00079841963        1.1770939
O       -0.034633797   -0.00079842291       -1.1614853
C        0.092270864     0.0021271468     -0.020791651
3
# CELL(abcABC):   10.58354    10.58354    10.58354    90.00000    90.00000    90.00000  PyEPFD-Step: 41 positions{angstrom} cell{angstrom}
O        0.005265054     0.0023468392         1.134011
O       0.0052650756     0.0023468489       -1.1116327
C       -0.014027139    -0.0062524411     -0.029809551
3
# CELL(abcABC):   10.58354    10.58354    10.58354    90.00000    90.00000    90.00000  PyEPFD-Step: 42 positions{angstrom} cell{angstrom}
O      -0.0089332245    -0.0075390831        1.1405213
O      -0.0089332613    -0.0075391141       -1.1416023
C        0.023799866      0.020085599     0.0014405391
3
# CELL(abcABC):   10.58354    10.58354    10.58354    90.00000    90.00000    90.00000  PyEPFD-Step: 43 positions{angstrom} cell{angstrom}
O       0.0032621955     -0.015967544        1.1413661
O       0.0032622089     -0.015967609       -1.1387377
C        -0.00869113      0.042540675    -0.0035007346
3
# CELL(abcABC):   10.58354    10.58354    10.58354    90.00000    90.00000    90.00000  PyEPFD-Step: 44 positions{angstrom} cell{angstrom}
O       -0.017601309      0.020803081        1.1571856
O       -0.017601381      0.020803167       -1.1498516
C        0.046893347     -0.055423497    -0.0097689386
3
# CELL(abcABC):   10.58354    10.58354    10.58354    90.00000    90.00000    90.00000  PyEPFD-Step: 45 positions{angstrom} cell{angstrom}
O        0.018999222     0.0022604689        1.1022457
O        0.018999301     0.0022604782       -1.1115519
C       -0.050617663    -0.0060223335      0.012397261
3
# CELL(abcABC):   10.58354    10.58354    10.58354    90.00000    90.00000    90.00000  PyEPFD-Step: 46 positions{angstrom} cell{angstrom}
O        0.001841249     0.0054664075        1.1868109
O       0.0018412566       0.00546643       -1.1807334
C      -0.0049054493     -0.014563584    -0.0080951919
3
# CELL(abcABC):   10.58354    10.58354    10.58354    90.00000    90.00000    90.00000  PyEPFD-Step: 47 positions{angstrom} cell{angstrom}
O       -0.013549999      0.019790694        1.1259995
O       -0.013550055      0.019790775       -1.1373553
C        0.036099861     -0.052726299      0.015127452
3
# CELL(abcABC):   10.58354    10.58354    10.58354    90.00000    90.00000    90.00000  PyEPFD-Step: 48 positions{angstrom} cell{angstrom}
O       -0.044551432     -0.020744798        1.1422548
O       -0.044551615     -0.020744883       -1.1395958
C         0.11869377       0.05526822    -0.0035415294
3
# CELL(abcABC):   10.58354    10.58354    10.58354    90.00000    90.00000    90.00000  PyEPFD-Step: 49 positions{angstrom} cell{angstrom}
O       -0.012789384      0.029084185        1.1429089
O       -0.012789436      0.029084305       -1.1452006
C        0.034073432     -0.077485987      0.003053228
3
# CELL(abcABC):   10.58354    10.58354    10.58354    90.00000    90.00000    90.00000  PyEPFD-Step: 50 positions{angstrom} cell{angstrom}
O      -0.0088040159    0.00036109153        1.1652215
O      -0.0088040522    0.00036109301       -1.1554642
C        0.023455629   -0.00096201881     -0.012997162
3
# CELL(abcABC):   10.58354    10.58354    10.58354    90.00000    90.00000    90.00000  PyEPFD-Step: 51 positions{angstrom} cell{angstrom}
O       0.0014774818    -0.0057440724        1.1300798
O       0.0014774878     -0.005744096       -1.1385408
C      -0.0039363018      0.015303338      0.011271405
3
# CELL(abcABC):   10.58354    10.58354    10.58354    90.00000    90.00000    90.00000  PyEPFD-Step: 52 positions{angstrom} cell{angstrom}
O       0.0081651287      0.016778309         1.147017
O       0.0081651623      0.016778378       -1.1366908
C       -0.021753508     -0.044700714     -0.013754967
3
# CELL(abcABC):   10.58354    10.58354    10.58354    90.00000    90.00000    90.00000  PyEPFD-Step: 53 positions{angstrom} cell{angstrom}
O        0.030837806    -0.0012120815        1.1375301
O        0.030837932    -0.0012120865       -1.1478305
C       -0.082157976     0.0032292234      0.013721627
3
# CELL(abcABC):   10.58354    10.58354    10.58354    90.00000    90.00000    90.00000  PyEPFD-Step: 54 positions{angstrom} cell{angstrom}
O       0.0059933397     -0.010291333        1.1617392
O       0.0059933643     -0.010291375        -1.171717
C       -0.015967435      0.027418133      0.013291879
3
# CELL(abcABC):   10.58354    10.58354    10.58354    90.00000    90.00000    90.00000  PyEPFD-Step: 55 positions{angstrom} cell{angstrom}
O      -0.0089639661      0.020560673        1.1422398
O       -0.008964003      0.020560758       -1.1408048
C        0.023881768     -0.054777675    -0.0019109703
3
# CELL(abcABC):   10.58354    10.58354    10.58354    90.00000    90.00000    90.00000  PyEPFD-Step: 56 positions{angstrom} cell{angstrom}
O      -0.0089073057      0.010243772        1.0957069
O      -0.0089073424      0.010243815       -1.1121077
C        0.023730813     -0.027291423      0.021847892
3
# CELL(abcABC):   10.58354    10.58354    10.58354    90.00000    90.00000    90.00000  PyEPFD-Step: 57 positions{angstrom} cell{angstrom}
O        0.014606546    -0.0021012344        1.1824399
O        0.014606606     -0.002101243       -1.1854592
C       -0.038914711     0.0055981015      0.004022505
3
# CELL(abcABC):   10.58354    10.58354    10.58354    90.00000    90.00000    90.00000  PyEPFD-Step: 58 positions{angstrom} cell{angstrom}
O       0.0078713199    -0.0058625852         1.156345
O       0.0078713524    -0.0058626093       -1.1591245
C       -0.020970744      0.015619079     0.0037031293
3
# CELL(abcABC):   10.58354    10.58354    10.58354    90.00000    90.00000    90.00000  PyEPFD-Step: 59 positions{angstrom} cell{angstrom}
O        0.031323137     -0.026865802        1.1384887
O        0.031323266     -0.026865913       -1.1626384
C       -0.083450995      0.071575779      0.032170195
3
# CELL(abcABC):   10.58354    10.58354    10.58354    90.00000    90.00000    90.00000  PyEPFD-Step: 60 positions{angstrom} cell{angstrom}
O       0.0095611417     -0.012508274        1.1630252
O        0.009561181     -0.012508326       -1.1700272
C       -0.025472761      0.033324501      0.009327786
3
# CELL(abcABC):   10.58354    10.58354    10.58354    90.00000    90.00000    90.00000  PyEPFD-Step: 61 positions{angstrom} cell{angstrom}
O        0.024018261     -0.018910594        1.1810821
O         0.02401836     -0.018910672       -1.1744363
C       -0.063989369       0.05038154    -0.0088523977
3
# CELL(abcABC):   10.58354    10.58354    10.58354    90.00000    90.00000    90.00000  PyEPFD-Step: 62 positions{angstrom} cell{angstrom}
O      -0.0027288893     0.0091929182        1.1425985
O      -0.0027289006      0.009192956       -1.1378381
C       0.0072702976     -0.024491741    -0.0063407043
3
# CELL(abcABC):   10.58354    10.58354    10.58354    90.00000    90.00000    90.00000  PyEPFD-Step: 63 positions{angstrom} cell{angstrom}
O       0.0064910242     0.0036772859        1.1436831
O        0.006491051     0.0036773011       -1.1203755
C       -0.017293365    -0.0097970126     -0.031047434
3
# CELL(abcABC):   10.58354    10.58354    10.58354    90.00000    90.00000    90.00000  PyEPFD-Step: 64 positions{angstrom} cell{angstrom}
O       0.0044275329     -0.019745043        1.1912016
O       0.0044275512     -0.019745125       -1.1687136
C       -0.011795818      0.052604677     -0.029955643
3
# CELL(abcABC):   10.58354    10.58354    10.58354    90.00000    90.00000    90.00000  PyEPFD-Step: 65 positions{angstrom} cell{angstrom}
O       -0.015523096     0.0066153733        1.1553121
O        -0.01552316     0.0066154005       -1.1440456
C        0.041356579     -0.017624655     -0.015007508
3
# CELL(abcABC):   10.58354    10.58354    10.58354    90.00000    90.00000    90.00000  PyEPFD-Step: 66 positions{angstrom} cell{angstrom}
O       -0.016501931     -0.034909496         1.154262
O       -0.016501999      -0.03490964        -1.159043
C        0.043964388      0.093005761     0.0063692044
3
# CELL(abcABC):   10.58354    10.58354    10.58354    90.00000    90.00000    90.00000  PyEPFD-Step: 67 positions{angstrom} cell{angstrom}
O        0.016086375     -0.013725819        1.1115807
O        0.016086441     -0.013725876       -1.1418442
C       -0.042857265      0.036568281      0.040314448
3
# CELL(abcABC):   10.58354    10.58354    10.58354    90.00000    90.00000    90.00000  PyEPFD-Step: 68 positions{angstrom} cell{angstrom}
O     -0.00077439139     0.0055536659        1.1457203
O     -0.00077439458     0.0055536887       -1.1575981
C       0.0020631309     -0.014796058      0.015822926
3
# CELL(abcABC):   10.58354    10.58354    10.58354    90.00000    90.00000    90.00000  PyEPFD-Step: 69 positions{angstrom} cell{angstrom}
O      -0.0069478174    -0.0087885655        1.1846515
O       -0.006947846    -0.0087886017       -1.1754283
C        0.018510351      0.023414466     -0.012285688
3
# CELL(abcABC):   10.58354    10.58354    10.58354    90.00000    90.00000    90.00000  PyEPFD-Step: 70 positions{angstrom} cell{angstrom}
O        0.011156897     -0.009650514        1.1605463
O        0.011156943    -0.0096505537       -1.1438012
C       -0.029724166      0.025710866     -0.022305524
3
# CELL(abcABC):   10.58354    10.58354    10.58354    90.00000    90.00000    90.00000  PyEPFD-Step: 71 positions{angstrom} cell{angstrom}
O      -0.0018399355    -0.0020315345        1.1646939
O      -0.0018399431    -0.0020315428       -1.1589172
C       0.0049019499     0.0054124071    -0.0076944878
3
# CELL(abcABC):   10.58354    10.58354    10.58354    90.00000    90.00000    90.00000  PyEPFD-Step: 72 positions{angstrom} cell{angstrom}
O       0.0088229153      0.017996649         1.106311
O       0.0088229516      0.017996723       -1.1200202
C       -0.023505981     -0.047946612       0.01826257
3
# CELL(abcABC):   10.58354    10.58354    10.58354    90.00000    90.00000    90.00000  PyEPFD-Step: 73 positions{angstrom} cell{angstrom}
O        0.015945698      0.018299769        1.1551558
O        0.015945764      0.018299845       -1.1403594
C       -0.042482475     -0.048754183      -0.01970963
3
# CELL(abcABC):   10.58354    10.58354    10.58354    90.00000    90.00000    90.00000  PyEPFD-Step: 74 positions{angstrom} cell{angstrom}
O       0.0023755508     -0.011694874        1.1819496
O       0.0023755606     -0.011694922        -1.174855
C      -0.0063289343      0.031157442    -0.0094502775
3
# CELL(abcABC):   10.58354    10.58354    10.58354    90.00000    90.00000    90.00000  PyEPFD-Step: 75 positions{angstrom} cell{angstrom}
O        0.010118072     -0.001686289        1.1588763
O        0.010118113    -0.0016862959       -1.1573526
C       -0.026956532     0.0044926054    -0.0020291102
3
# CELL(abcABC):   10.58354    10.58354    10.58354    90.00000    90.00000    90.00000  PyEPFD-Step: 76 positions{angstrom} cell{angstrom}
O       -0.025335336     -0.013027543        1.1618057
O        -0.02533544     -0.013027597       -1.1952685
C        0.067498315      0.034707936      0.044576124
3
# CELL(abcABC):   10.58354    10.58354    10.58354    90.00000    90.00000    90.00000  PyEPFD-Step: 77 positions{angstrom} cell{angstrom}
O      -0.0089377045     0.0088567376        1.1445991
O      -0.0089377413      0.008856774       -1.1630793
C        0.023811802      -0.02359609      0.024617833
3
# CELL(abcABC):   10.58354    10.58354    10.58354    90.00000    90.00000    90.00000  PyEPFD-Step: 78 positions{angstrom} cell{angstrom}
O        0.023926106     -0.015403739        1.1873032
O        0.023926205     -0.015403803       -1.1635672
C        -0.06374385      0.041038589     -0.031618183
3
# CELL(abcABC):   10.58354    10.58354    10.58354    90.00000    90.00000    90.00000  PyEPFD-Step: 79 positions{angstrom} cell{angstrom}
O      -0.0035002241     -0.017389917        1.1693772
O      -0.0035002385     -0.017389989       -1.1497969
C       0.0093252851      0.046330158     -0.026082323
3
# CELL(abcABC):   10.58354    10.58354    10.58354    90.00000    90.00000    90.00000  PyEPFD-Step: 80 positions{angstrom} cell{angstrom}
O       -0.020990108      0.006567005        1.1909166
O       -0.020990194     0.0065670321        -1.191393
C        0.055921774     -0.017495792    0.00063506515
3
# CELL(abcABC):   10.58354    10.58354    10.58354    90.00000    90.00000    90.00000  PyEPFD-Step: 81 positions{angstrom} cell{angstrom}
O       0.0076036788      0.012844964        1.1475329
O       0.0076037101      0.012845016       -1.1419192
C       -0.020257695     -0.034221508    -0.0074775053
3
# CELL(abcABC):   10.58354    10.58354    10.58354    90.00000    90.00000    90.00000  PyEPFD-Step: 82 positions{angstrom} cell{angstrom}
O        0.020178976   -6.5458863e-05        1.1010165
O        0.020179059   -6.5459132e-05       -1.1343886
C       -0.053760758    0.00017439528      0.044455362
3
# CELL(abcABC):   10.58354    10.58354    10.58354    90.00000    90.00000    90.00000  PyEPFD-Step: 83 positions{angstrom} cell{angstrom}
O       0.0086445313     0.0084097417        1.1250471
O       0.0086445669     0.0084097763       -1.1328105
C       -0.023030731     -0.022405205       0.01034215
3
# CELL(abcABC):   10.58354    10.58354    10.58354    90.00000    90.00000    90.00000  PyEPFD-Step: 84 positions{angstrom} cell{angstrom}
O      -0.0012896625     -0.028507852        1.1515812
O      -0.0012896678     -0.028507969       -1.1332291
C       0.0034359145      0.075950522     -0.024446186
3
# CELL(abcABC):   10.58354    10.58354    10.58354    90.00000    90.00000    90.00000  PyEPFD-Step: 85 positions{angstrom} cell{angstrom}
O        0.019311204    -0.0028237239        1.1493657
O        0.019311283    -0.0028237355       -1.1307783
C       -0.051448843     0.0075229555     -0.024759653
3
# CELL(abcABC):   10.58354    10.58354    10.58354    90.00000    90.00000    90.00000  PyEPFD-Step: 86 positions{angstrom} cell{angstrom}
O        0.004777463    -0.0043850167        1.1291537
O       0.0047774827    -0.0043850347       -1.1248004
C       -0.012728101      0.011682546    -0.0057984903
3
# CELL(abcABC):   10.58354    10.58354    10.58354    90.00000    90.00000    90.00000  PyEPFD-Step: 87 positions{angstrom} cell{angstrom}
O       -0.018307794      0.013755333        1.1802162
O       -0.018307869      0.013755389       -1.1725944
C        0.048775562     -0.036646911     -0.010152385
3
# CELL(abcABC):   10.58354    10.58354    10.58354    90.00000    90.00000    90.00000  PyEPFD-Step: 88 positions{angstrom} cell{angstrom}
O       0.0041290588     0.0042995249        1.1812144
O       0.0041290758     0.0042995426       -1.1749678
C       -0.011000624      -0.01145478     -0.008320438
3
# CELL(abcABC):   10.58354    10.58354    10.58354    90.00000    90.00000    90.00000  PyEPFD-Step: 89 positions{angstrom} cell{angstrom}
O       -0.011504599     0.0021109869        1.1447435
O       -0.011504646     0.0021109956       -1.1419514
C        0.030650514     -0.005624084    -0.0037187343
3
# CELL(abcABC):   10.58354    10.58354    10.58354    90.00000    90.00000    90.00000  PyEPFD-Step: 90 positions{angstrom} cell{angstrom}
O        0.024986348     0.0090479714        1.1899131
O        0.024986451     0.0090480086       -1.1825129
C       -0.066568544     -0.024105574    -0.0098573502
3
# CELL(abcABC):   10.58354    10.58354    10.58354    90.00000    90.00000    90.00000  PyEPFD-Step: 91 positions{angstrom} cell{angstrom}
O      -0.0051257279     0.0018527801         1.161789
O       -0.005125749     0.0018527878       -1.1811445
C        0.013655947    -0.0049361705      0.025783936
3
# CELL(abcABC):   10.58354    10.58354    10.58354    90.00000    90.00000    90.00000  PyEPFD-Step: 92 positions{angstrom} cell{angstrom}
O       0.0094534152      0.017019635        1.1571675
O       0.0094534542      0.017019705       -1.1621265
C       -0.025185757     -0.045343654     0.0066062919
3
# CELL(abcABC):   10.58354    10.58354    10.58354    90.00000    90.00000    90.00000  PyEPFD-Step: 93 positions{angstrom} cell{angstrom}
O        0.015574476    -0.0096405605        1.1641362
O         0.01557454    -0.0096406002       -1.1621209
C       -0.041493465      0.025684348    -0.0026840636
3
# CELL(abcABC):   10.58354    10.58354    10.58354    90.00000    90.00000    90.00000  PyEPFD-Step: 94 positions{angstrom} cell{angstrom}
O        0.011623165     0.0078127711        1.1491846
O        0.011623212     0.0078128032       -1.1355997
C       -0.030966395     -0.020814758     -0.018095833
3
# CELL(abcABC):   10.58354    10.58354    10.58354    90.00000    90.00000    90.00000  PyEPFD-Step: 95 positions{angstrom} cell{angstrom}
O       -0.017492703      0.025809727        1.1797632
O       -0.017492775      0.025809833       -1.1733544
C           0.046604     -0.068762187    -0.0085366196
3
# CELL(abcABC):   10.58354    10.58354    10.58354    90.00000    90.00000    90.00000  PyEPFD-Step: 96 positions{angstrom} cell{angstrom}
O       -0.011085151    -0.0069875359         1.162044
O       -0.011085197    -0.0069875647       -1.1528651
C        0.029533022      0.018616169     -0.012226607
3
# CELL(abcABC):   10.58354    10.58354    10.58354    90.00000    90.00000    90.00000  PyEPFD-Step: 97 positions{angstrom} cell{angstrom}
O       0.0066636052     -0.025652724        1.1370601
O       0.0066636326     -0.025652829       -1.1372317
C       -0.017753154      0.068343899    0.00022912201
3