3
# CELL(abcABC):   10.58354    10.58354    10.58354    90.00000    90.00000    90.00000  PyEPFD-Step: 0 positions{angstrom} cell{angstrom}
O       -0.019544938      0.020911389        1.1656276
O       -0.019545019      0.020911475       -1.1307365
C        0.052071558      -0.05571205     -0.046477761
3
# CELL(abcABC):   10.58354    10.58354    10.58354    90.00000    90.00000    90.00000  PyEPFD-Step: 1 positions{angstrom} cell{angstrom}
O        -0.03279979     0.0041506748        1.1859881
O       -0.032799926     0.0041506919       -1.1932012
C         0.08738509     -0.011058214     0.0096090639
3
# CELL(abcABC):   10.58354    10.58354    10.58354    90.00000    90.00000    90.00000  PyEPFD-Step: 2 positions{angstrom} cell{angstrom}
O      0.00081564219     0.0045118998        1.1745197
O      0.00081564555     0.0045119184       -1.1844867
C      -0.0021730311     -0.012020588      0.013277605
3
# CELL(abcABC):   10.58354    10.58354    10.58354    90.00000    90.00000    90.00000  PyEPFD-Step: 3 positions{angstrom} cell{angstrom}
O       0.0082887571     0.0091468314        1.1525915
O       0.0082887912     0.0091468691       -1.1413242
C       -0.022082878     -0.024368957      -0.01500856
3
# CELL(abcABC):   10.58354    10.58354    10.58354    90.00000    90.00000    90.00000  PyEPFD-Step: 4 positions{angstrom} cell{angstrom}
O        0.018834189    -0.0096784619        1.1184955
O        0.018834266    -0.0096785017       -1.1458932
C       -0.050177981      0.025785325      0.036496889
3
# CELL(abcABC):   10.58354    10.58354    10.58354    90.00000    90.00000    90.00000  PyEPFD-Step: 5 positions{angstrom} cell{angstrom}
O        0.037944339     0.0051968823        1.1613011
O        0.037944495     0.0051969036       -1.1746162
C        -0.10109118     -0.013845516      0.017737526
3
# CELL(abcABC):   10.58354    10.58354    10.58354    90.00000    90.00000    90.00000  PyEPFD-Step: 6 positions{angstrom} cell{angstrom}
O     -0.00076090575     0.0061223801        1.1464816
O     -0.00076090888     0.0061224053       -1.1313694
C       0.0020272025     -0.016311224     -0.020130277
3
# CELL(abcABC):   10.58354    10.58354    10.58354    90.00000    90.00000    90.00000  PyEPFD-Step: 7 positions{angstrom} cell{angstrom}
O          0.0174567   -0.00060622069        1.1720097
O        0.017456771   -0.00060622319       -1.1328979
C       -0.046508079     0.0016150911     -0.052100055
3
# CELL(abcABC):   10.58354    10.58354    10.58354    90.00000    90.00000    90.00000  PyEPFD-Step: 8 positions{angstrom} cell{angstrom}
O      -0.0045869383    -0.0011951043        1.1637882
O      -0.0045869572    -0.0011951093       -1.1270899
C        0.012220505     0.0031839929     -0.048885177
3
# CELL(abcABC):   10.58354    10.58354    10.58354    90.00000    90.00000    90.00000  PyEPFD-Step: 9 positions{angstrom} cell{angstrom}
O        0.013772391     -0.011534099         1.156232
O        0.013772448     -0.011534147       -1.1433405
C       -0.036692357      0.030729108     -0.017172263
3
# CELL(abcABC):   10.58354    10.58354    10.58354    90.00000    90.00000    90.00000  PyEPFD-Step: 10 positions{angstrom} cell{angstrom}
O      -0.0099048809     -0.011922277        1.1623097
O      -0.0099049216     -0.011922326        -1.173605
C         0.02638855      0.031763289      0.015046977
3
# CELL(abcABC):   10.58354    10.58354    10.58354    90.00000    90.00000    90.00000  PyEPFD-Step: 11 positions{angstrom} cell{angstrom}
O      -0.0031482078     0.0088982743        1.1814219
O      -0.0031482207     0.0088983109       -1.1854642
C       0.0083874444     -0.023706752     0.0053851803
3
# CELL(abcABC):   10.58354    10.58354    10.58354    90.00000    90.00000    90.00000  PyEPFD-Step: 12 positions{angstrom} cell{angstrom}
O       -0.020052845       0.01676025        1.1611163
O       -0.020052927      0.016760319       -1.1470026
C        0.053424721     -0.044652601     -0.018800294
3
# CELL(abcABC):   10.58354    10.58354    10.58354    90.00000    90.00000    90.00000  PyEPFD-Step: 13 positions{angstrom} cell{angstrom}
O      -0.0095416844    -0.0071170612        1.1495647
O      -0.0095417237    -0.0071170905       -1.1608157
C        0.025420923       0.01896125      0.014987934
3
# CELL(abcABC):   10.58354    10.58354    10.58354    90.00000    90.00000    90.00000  PyEPFD-Step: 14 positions{angstrom} cell{angstrom}
O      0.00053483499      0.005518402        1.1123865
O      0.00053483719     0.0055184247       -1.1380373
C      -0.0014249056     -0.014702108      0.034169832
3
# CELL(abcABC):   10.58354    10.58354    10.58354    90.00000    90.00000    90.00000  PyEPFD-Step: 15 positions{angstrom} cell{angstrom}
O      -0.0053380165    -0.0071411426        1.1465652
O      -0.0053380385     -0.007141172       -1.1574849
C        0.014221525      0.019025408      0.014546635
3
# CELL(abcABC):   10.58354    10.58354    10.58354    90.00000    90.00000    90.00000  PyEPFD-Step: 16 positions{angstrom} cell{angstrom}
O       0.0069581524    -0.0088215481        1.1640959
O       0.0069581811    -0.0088215844       -1.1439202
C       -0.018537886      0.023502338       -0.0268755
3
# CELL(abcABC):   10.58354    10.58354    10.58354    90.00000    90.00000    90.00000  PyEPFD-Step: 17 positions{angstrom} cell{angstrom}
O       0.0092510852      0.019597904        1.1713772
O       0.0092511233      0.019597985       -1.1878885
C       -0.024646709      -0.05221267      0.021995119
3
# CELL(abcABC):   10.58354    10.58354    10.58354    90.00000    90.00000    90.00000  PyEPFD-Step: 18 positions{angstrom} cell{angstrom}
O       0.0078310361     -0.020181003        1.0986648
O       0.0078310683     -0.020181086       -1.1122887
C        -0.02086342      0.053766159      0.018148777
3
# CELL(abcABC):   10.58354    10.58354    10.58354    90.00000    90.00000    90.00000  PyEPFD-Step: 19 positions{angstrom} cell{angstrom}
O       -0.010060399    0.00017165936          1.17881
O        -0.01006044    0.00017166007       -1.1713019
C         0.02680288   -0.00045733428     -0.010000955
3
# CELL(abcABC):   10.58354    10.58354    10.58354    90.00000    90.00000    90.00000  PyEPFD-Step: 20 positions{angstrom} cell{angstrom}
O        0.018400463    0.00071901918        1.1679223
O        0.018400539    0.00071902214       -1.1653681
C       -0.049022451    -0.0019156084    -0.0034019949
3
# CELL(abcABC):   10.58354    10.58354    10.58354    90.00000    90.00000    90.00000  PyEPFD-Step: 21 positions{angstrom} cell{angstrom}
O      -0.0023146933     0.0056836427        1.1595059
O      -0.0023147028      0.005683666       -1.1392195
C       0.0061667979     -0.015142341     -0.027022895
3
# CELL(abcABC):   10.58354    10.58354    10.58354    90.00000    90.00000    90.00000  PyEPFD-Step: 22 positions{angstrom} cell{angstrom}
O       -0.021505667     -0.028577565        1.1518712
O       -0.021505756     -0.028577683       -1.1405925
C        0.057295324      0.076136251     -0.015023827
3
# CELL(abcABC):   10.58354    10.58354    10.58354    90.00000    90.00000    90.00000  PyEPFD-Step: 23 positions{angstrom} cell{angstrom}
O       -0.017675067      0.021769502        1.1920829
O        -0.01767514      0.021769592       -1.1778094
C        0.047089853     -0.057998233     -0.019013065
3
# CELL(abcABC):   10.58354    10.58354    10.58354    90.00000    90.00000    90.00000  PyEPFD-Step: 24 positions{angstrom} cell{angstrom}
O        0.010267701     -0.022965536        1.1536888
O        0.010267744      -0.02296563        -1.137071
C       -0.027355175      0.061184701     -0.022135926
3
# CELL(abcABC):   10.58354    10.58354    10.58354    90.00000    90.00000    90.00000  PyEPFD-Step: 25 positions{angstrom} cell{angstrom}
O        0.015172347    -0.0011841489         1.186318
O         0.01517241    -0.0011841538        -1.196116
C       -0.040422116     0.0031548056       0.01305231
3
# CELL(abcABC):   10.58354    10.58354    10.58354    90.00000    90.00000    90.00000  PyEPFD-Step: 26 positions{angstrom} cell{angstrom}
O       -0.011147668      0.013183023        1.1495641
O       -0.011147714      0.013183077       -1.1512336
C         0.02969958     -0.035122164     0.0022244378
3
# CELL(abcABC):   10.58354    10.58354    10.58354    90.00000    90.00000    90.00000  PyEPFD-Step: 27 positions{angstrom} cell{angstrom}
O      -0.0066101491      0.016537476        1.1356391
O      -0.0066101763      0.016537544       -1.1132986
C        0.017610737     -0.044059088     -0.029759104
3
# CELL(abcABC):   10.58354    10.58354    10.58354    90.00000    90.00000    90.00000  PyEPFD-Step: 28 positions{angstrom} cell{angstrom}
O       0.0066429534    -0.0025350047        1.1542743
O       0.0066429807    -0.0025350151       -1.1429949
C       -0.017698134     0.0067537509     -0.015024671
3
# CELL(abcABC):   10.58354    10.58354    10.58354    90.00000    90.00000    90.00000  PyEPFD-Step: 29 positions{angstrom} cell{angstrom}
O       -0.021128432     -0.009768509         1.175508
O       -0.021128519    -0.0097685492       -1.1852646
C        0.056290296      0.026025228      0.012997248
3
# CELL(abcABC):   10.58354    10.58354    10.58354    90.00000    90.00000    90.00000  PyEPFD-Step: 30 positions{angstrom} cell{angstrom}
O        0.013330918    -0.0019141207        1.1624782
O        0.013330973    -0.0019141286       -1.1701805
C       -0.035516186     0.0050995939      0.010260719
3
# CELL(abcABC):   10.58354    10.58354    10.58354    90.00000    90.00000    90.00000  PyEPFD-Step: 31 positions{angstrom} cell{angstrom}
O       0.0023403383    -0.0038676158        1.1575677
O        0.002340348    -0.0038676317       -1.1376087
C      -0.0062351213      0.010304089     -0.026586742
3
# CELL(abcABC):   10.58354    10.58354    10.58354    90.00000    90.00000    90.00000  PyEPFD-Step: 32 positions{angstrom} cell{angstrom}
O      -0.0020572569     0.0077340316        1.1867649
O      -0.0020572653     0.0077340635        -1.177496
C       0.0054809367     -0.020604981     -0.012346436
3
# CELL(abcABC):   10.58354    10.58354    10.58354    90.00000    90.00000    90.00000  PyEPFD-Step: 33 positions{angstrom} cell{angstrom}
O        0.020347633     -0.014394461        1.1785967
O        0.020347717      -0.01439452         -1.18106
C       -0.054210095      0.038349674     0.0032818626
3
# CELL(abcABC):   10.58354    10.58354    10.58354    90.00000    90.00000    90.00000  PyEPFD-Step: 34 positions{angstrom} cell{angstrom}
O      -0.0094072322     0.0061107552        1.2063143
O       -0.009407271     0.0061107804       -1.2311647
C        0.025062716     -0.016280253       0.03310363
3
# CELL(abcABC):   10.58354    10.58354    10.58354    90.00000    90.00000    90.00000  PyEPFD-Step: 35 positions{angstrom} cell{angstrom}
O       -0.040777419      0.003428922        1.1588597
O       -0.040777586     0.0034289361       -1.1305303
C         0.10863906    -0.0091353221     -0.037736999
3
# CELL(abcABC):   10.58354    10.58354    10.58354    90.00000    90.00000    90.00000  PyEPFD-Step: 36 positions{angstrom} cell{angstrom}
O        0.021770355      0.012539777        1.1700588
O        0.021770444      0.012539829       -1.1510468
C       -0.058000505     -0.033408432     -0.025325324
3
# CELL(abcABC):   10.58354    10.58354    10.58354    90.00000    90.00000    90.00000  PyEPFD-Step: 37 positions{angstrom} cell{angstrom}
O       -0.017552601      0.012480028        1.1492725
O       -0.017552674      0.012480079       -1.1568875
C        0.046763581     -0.033249247      0.010144439
3
# CELL(abcABC):   10.58354    10.58354    10.58354    90.00000    90.00000    90.00000  PyEPFD-Step: 38 positions{angstrom} cell{angstrom}
O        0.035260755     -0.011687161        1.1480132
O          0.0352609     -0.011687209       -1.1400177
C       -0.093941583      0.031136893     -0.010650298
3
# CELL(abcABC):   10.58354    10.58354    10.58354    90.00000    90.00000    90.00000  PyEPFD-Step: 39 positions{angstrom} cell{angstrom}
O       -0.019313809    -0.0017545562        1.1624573
O       -0.019313889    -0.0017545634        -1.135588
C        0.051455785     0.0046744827     -0.035791916
3
# CELL(abcABC):   10.58354    10.58354    10.58354    90.00000    90.00000    90.00000  PyEPFD-Step: 40 positions{angstrom} cell{angstrom}
O        0.014634287      0.028283251        1.2016882
O        0.014634347      0.028283368       -1.1658129
C       -0.038988617     -0.075352142     -0.047788791
3
# CELL(abcABC):   10.58354    10.58354    10.58354    90.00000    90.00000    90.00000  PyEPFD-Step: 41 positions{angstrom} cell{angstrom}
O       -0.010286566     -0.014396466        1.1423049
O       -0.010286609     -0.014396525       -1.1454156
C        0.027405435      0.038355016     0.0041443015
3
# CELL(abcABC):   10.58354    10.58354    10.58354    90.00000    90.00000    90.00000  PyEPFD-Step: 42 positions{angstrom} cell{angstrom}
O        0.026340078     0.0021918094        1.1597768
O        0.026340187     0.0021918184       -1.1719022
C       -0.070175147    -0.0058394111      0.016152666
3
# CELL(abcABC):   10.58354    10.58354    10.58354    90.00000    90.00000    90.00000  PyEPFD-Step: 43 positions{angstrom} cell{angstrom}
O      -0.0053017675      0.023299679        1.1894399
O      -0.0053017893      0.023299775       -1.1801085
C        0.014124951     -0.062074926     -0.012429806
3
# CELL(abcABC):   10.58354    10.58354    10.58354    90.00000    90.00000    90.00000  PyEPFD-Step: 44 positions{angstrom} cell{angstrom}
O       0.0041905079     0.0092951467        1.1636929
O       0.0041905252      0.009295185       -1.1624793
C       -0.011164337     -0.024764098    -0.0016160999
3
# CELL(abcABC):   10.58354    10.58354    10.58354    90.00000    90.00000    90.00000  PyEPFD-Step: 45 positions{angstrom} cell{angstrom}
O      -0.0012442016      -0.01525297        1.1317927
O      -0.0012442067     -0.015253033       -1.1581269
C       0.0033147976       0.04063691      0.035080204
3
# CELL(abcABC):   10.58354    10.58354    10.58354    90.00000    90.00000    90.00000  PyEPFD-Step: 46 positions{angstrom} cell{angstrom}
O       0.0028302192    -0.0070275239        1.1433558
O       0.0028302309    -0.0070275528       -1.1458944
C      -0.0075402604      0.018722705     0.0033821432
3
# CELL(abcABC):   10.58354    10.58354    10.58354    90.00000    90.00000    90.00000  PyEPFD-Step: 47 positions{angstrom} cell{angstrom}
O       -0.030203686     -0.034857882        1.1610766
O        -0.03020381     -0.034858025       -1.1658091
C        0.080468557       0.09286825     0.0063047383
3
# CELL(abcABC):   10.58354    10.58354    10.58354    90.00000    90.00000    90.00000  PyEPFD-Step: 48 positions{angstrom} cell{angstrom}
O       0.0087697431     -0.028490661        1.1506136
O       0.0087697792     -0.028490778       -1.1621981
C        -0.02336432      0.075904722       0.01543226
3
# CELL(abcABC):   10.58354    10.58354    10.58354    90.00000    90.00000    90.00000  PyEPFD-Step: 49 positions{angstrom} cell{angstrom}
O      -0.0079784027     -0.013479283        1.1989678
O      -0.0079784356     -0.013479339       -1.1826754
C        0.021256033       0.03591146     -0.021702462
3
# CELL(abcABC):   10.58354    10.58354    10.58354    90.00000    90.00000    90.00000  PyEPFD-Step: 50 positions{angstrom} cell{angstrom}
O        0.010491439      0.028091376        1.1698724
O        0.010491482      0.028091492       -1.1818105
C       -0.027951256     -0.074840949      0.015903318
3
# CELL(abcABC):   10.58354    10.58354    10.58354    90.00000    90.00000    90.00000  PyEPFD-Step: 51 positions{angstrom} cell{angstrom}
O       0.0066277668      0.014939717        1.1410937
O       0.0066277941      0.014939779       -1.1536238
C       -0.017657674     -0.039802344      0.016691772
3
# CELL(abcABC):   10.58354    10.58354    10.58354    90.00000    90.00000    90.00000  PyEPFD-Step: 52 positions{angstrom} cell{angstrom}
O        0.010236775     -0.017717133        1.1731596
O        0.010236817     -0.017717206       -1.1413749
C       -0.027272781      0.047201925      -0.04233974
3
# CELL(abcABC):   10.58354    10.58354    10.58354    90.00000    90.00000    90.00000  PyEPFD-Step: 53 positions{angstrom} cell{angstrom}
O        0.019781666    -0.0021219215        1.1280633
O        0.019781748    -0.0021219303       -1.1493484
C       -0.052702248      0.005653216      0.028354339
3
# CELL(abcABC):   10.58354    10.58354    10.58354    90.00000    90.00000    90.00000  PyEPFD-Step: 54 positions{angstrom} cell{angstrom}
O       -0.014468203     0.0075423405        1.1379923
O       -0.014468262     0.0075423716        -1.160445
C        0.038546137     -0.020094278      0.029909566
3
# CELL(abcABC):   10.58354    10.58354    10.58354    90.00000    90.00000    90.00000  PyEPFD-Step: 55 positions{angstrom} cell{angstrom}
O      -0.0056696092      0.012360828        1.1586688
O      -0.0056696325      0.012360879       -1.1576024
C        0.015104953     -0.032931675    -0.0014199403
3
# CELL(abcABC):   10.58354    10.58354    10.58354    90.00000    90.00000    90.00000  PyEPFD-Step: 56 positions{angstrom} cell{angstrom}
O      -0.0036913456     0.0036505441        1.1658405
O      -0.0036913608     0.0036505592       -1.1767935
C       0.0098344703    -0.0097257672      0.014590945
3
# CELL(abcABC):   10.58354    10.58354    10.58354    90.00000    90.00000    90.00000  PyEPFD-Step: 57 positions{angstrom} cell{angstrom}
O      -0.0034074471    -0.0051627566        1.1575819
O      -0.0034074611    -0.0051627778       -1.1527995
C       0.0090781089      0.013754598    -0.0063700836
3
# CELL(abcABC):   10.58354    10.58354    10.58354    90.00000    90.00000    90.00000  PyEPFD-Step: 58 positions{angstrom} cell{angstrom}
O      -0.0039083111    -0.0076710727        1.1621307
O      -0.0039083272    -0.0076711043       -1.1817863
C        0.010412509      0.020437246      0.026183716
3
# CELL(abcABC):   10.58354    10.58354    10.58354    90.00000    90.00000    90.00000  PyEPFD-Step: 59 positions{angstrom} cell{angstrom}
O       0.0030439911       0.02010378        1.1330668
O       0.0030440036      0.020103862       -1.1269321
C      -0.0081097906     -0.053560421    -0.0081714044
3
# CELL(abcABC):   10.58354    10.58354    10.58354    90.00000    90.00000    90.00000  PyEPFD-Step: 60 positions{angstrom} cell{angstrom}
O        0.012296883    -0.0023369097         1.137503
O        0.012296933    -0.0023369193       -1.1402922
C       -0.032761313     0.0062259867     0.0037158984
3
# CELL(abcABC):   10.58354    10.58354    10.58354    90.00000    90.00000    90.00000  PyEPFD-Step: 61 positions{angstrom} cell{angstrom}
O       -0.024786133    0.00069870659        1.1699101
O       -0.024786235    0.00069870946       -1.1469056
C         0.06603513    -0.0018614917     -0.030643675
3
# CELL(abcABC):   10.58354    10.58354    10.58354    90.00000    90.00000    90.00000  PyEPFD-Step: 62 positions{angstrom} cell{angstrom}
O       0.0017704717     0.0018191084        1.1147771
O        0.001770479     0.0018191159       -1.1365534
C      -0.0047168846    -0.0048464624      0.029008633
3
# CELL(abcABC):   10.58354    10.58354    10.58354    90.00000    90.00000    90.00000  PyEPFD-Step: 63 positions{angstrom} cell{angstrom}
O        0.017672593      0.012976515          1.15225
O        0.017672666      0.012976569       -1.1490424
C       -0.047083261     -0.034571987    -0.0042723433
3
# CELL(abcABC):   10.58354    10.58354    10.58354    90.00000    90.00000    90.00000  PyEPFD-Step: 64 positions{angstrom} cell{angstrom}
O       -0.011318379     -0.022201512        1.1647245
O       -0.011318426     -0.022201604        -1.165249
C        0.030154388      0.059149193    0.00069923264
3
# CELL(abcABC):   10.58354    10.58354    10.58354    90.00000    90.00000    90.00000  PyEPFD-Step: 65 positions{angstrom} cell{angstrom}
O      -0.0099797169    -0.0095531548        1.1466689
O       -0.009979758    -0.0095531941       -1.1364373
C        0.026587928      0.025451482     -0.013628998
3
# CELL(abcABC):   10.58354    10.58354    10.58354    90.00000    90.00000    90.00000  PyEPFD-Step: 66 positions{angstrom} cell{angstrom}
O         0.01788787      -0.02658716        1.1386123
O        0.017887944     -0.026587269       -1.1462453
C       -0.047656803       0.07083342      0.010168283
3
# CELL(abcABC):   10.58354    10.58354    10.58354    90.00000    90.00000    90.00000  PyEPFD-Step: 67 positions{angstrom} cell{angstrom}
O       -0.018025412      0.015746966        1.1791388
O       -0.018025487      0.015747031       -1.1770219
C        0.048023242     -0.041953013    -0.0028192825
3
# CELL(abcABC):   10.58354    10.58354    10.58354    90.00000    90.00000    90.00000  PyEPFD-Step: 68 positions{angstrom} cell{angstrom}
O       0.0075181743     -0.020714267        1.1365239
O       0.0075182052     -0.020714353       -1.1464353
C       -0.020029894       0.05518688      0.013203549
3
# CELL(abcABC):   10.58354    10.58354    10.58354    90.00000    90.00000    90.00000  PyEPFD-Step: 69 positions{angstrom} cell{angstrom}
O       -0.017385921     -0.013544971        1.1552898
O       -0.017385992     -0.013545027       -1.1508815
C        0.046319511      0.036086465     -0.005871836
3
# CELL(abcABC):   10.58354    10.58354    10.58354    90.00000    90.00000    90.00000  PyEPFD-Step: 70 positions{angstrom} cell{angstrom}
O       0.0068675653     -0.010195272        1.1683341
O       0.0068675936     -0.010195314       -1.1610987
C       -0.018296544       0.02716221    -0.0096377454
3
# CELL(abcABC):   10.58354    10.58354    10.58354    90.00000    90.00000    90.00000  PyEPFD-Step: 71 positions{angstrom} cell{angstrom}
O       0.0052900317      0.023929952        1.1501215
O       0.0052900535       0.02393005       -1.1540287
C       -0.014093684     -0.063754095     0.0052052797
3
# CELL(abcABC):   10.58354    10.58354    10.58354    90.00000    90.00000    90.00000  PyEPFD-Step: 72 positions{angstrom} cell{angstrom}
O       -0.015080024    0.00083525665        1.1715502
O       -0.015080086    0.00083526009       -1.1750345
C        0.040176149    -0.0022252879     0.0046419031
3
# CELL(abcABC):   10.58354    10.58354    10.58354    90.00000    90.00000    90.00000  PyEPFD-Step: 73 positions{angstrom} cell{angstrom}
O       -0.014325599       0.01563299        1.1400746
O       -0.014325658      0.015633054       -1.1288595
C        0.038166211     -0.041649358     -0.014939059
3
# CELL(abcABC):   10.58354    10.58354    10.58354    90.00000    90.00000    90.00000  PyEPFD-Step: 74 positions{angstrom} cell{angstrom}
O        0.011410655     -0.010919062         1.169687
O        0.011410702     -0.010919107       -1.1662337
C       -0.030400228      0.029090529    -0.0045995742
3
# CELL(abcABC):   10.58354    10.58354    10.58354    90.00000    90.00000    90.00000  PyEPFD-Step: 75 positions{angstrom} cell{angstrom}
O        0.026069381    0.00016740808        1.1342938
O        0.026069488    0.00016740876       -1.1562788
C       -0.069453956   -0.00044600802      0.029286693
3
# CELL(abcABC):   10.58354    10.58354    10.58354    90.00000    90.00000    90.00000  PyEPFD-Step: 76 positions{angstrom} cell{angstrom}
O      -0.0011684103    -0.0081102929        1.1522316
O      -0.0011684151    -0.0081103263       -1.1551881
C       0.0031128746      0.021607415      0.003938739
3
# CELL(abcABC):   10.58354    10.58354    10.58354    90.00000    90.00000    90.00000  PyEPFD-Step: 77 positions{angstrom} cell{angstrom}
O       -0.020085924    0.00051580208        1.1523485
O       -0.020086007     0.0005158042       -1.1381562
C         0.05351285    -0.0013741981      -0.01890496
3
# CELL(abcABC):   10.58354    10.58354    10.58354    90.00000    90.00000    90.00000  PyEPFD-Step: 78 positions{angstrom} cell{angstrom}
O       0.0017664837       0.01538025        1.1994543
O        0.001766491      0.015380313       -1.1709168
C      -0.0047062598      -0.04097601     -0.038014128
3
# CELL(abcABC):   10.58354    10.58354    10.58354    90.00000    90.00000    90.00000  PyEPFD-Step: 79 positions{angstrom} cell{angstrom}
O       -0.017465404     0.0019126963          1.15879
O       -0.017465476     0.0019127042       -1.1730988
C        0.046531269    -0.0050957989      0.019061256
3
# CELL(abcABC):   10.58354    10.58354    10.58354    90.00000    90.00000    90.00000  PyEPFD-Step: 80 positions{angstrom} cell{angstrom}
O       0.0033485746     0.0014782165        1.1865919
O       0.0033485884     0.0014782225       -1.1718968
C      -0.0089212611    -0.0039382592     -0.019574862
3
# CELL(abcABC):   10.58354    10.58354    10.58354    90.00000    90.00000    90.00000  PyEPFD-Step: 81 positions{angstrom} cell{angstrom}
O       0.0004069489     0.0016708082        1.1762473
O      0.00040695057     0.0016708151       -1.1704421
C      -0.0010841919    -0.0044513615    -0.0077325345
3
# CELL(abcABC):   10.58354    10.58354    10.58354    90.00000    90.00000    90.00000  PyEPFD-Step: 82 positions{angstrom} cell{angstrom}
O        0.023101101      0.052286476        1.1836874
O        0.023101196      0.052286691       -1.1742248
C       -0.061545874      -0.13930145     -0.012604604
3
# CELL(abcABC):   10.58354    10.58354    10.58354    90.00000    90.00000    90.00000  PyEPFD-Step: 83 positions{angstrom} cell{angstrom}
O         0.01482326      0.019809288        1.1658299
O        0.014823321      0.019809369       -1.1520567
C       -0.039492079     -0.052775836     -0.018346749
3
# CELL(abcABC):   10.58354    10.58354    10.58354    90.00000    90.00000    90.00000  PyEPFD-Step: 84 positions{angstrom} cell{angstrom}
O       0.0057144061     0.0065138274        1.1574006
O       0.0057144296     0.0065138542       -1.1652797
C       -0.015224301     -0.017354117      0.010496135
3
# CELL(abcABC):   10.58354    10.58354    10.58354    90.00000    90.00000    90.00000  PyEPFD-Step: 85 positions{angstrom} cell{angstrom}
O       -0.032517094      -0.04050883        1.1516128
O       -0.032517227     -0.040508997       -1.1323174
C        0.086631929       0.10792349     -0.025702802
3
# CELL(abcABC):   10.58354    10.58354    10.58354    90.00000    90.00000    90.00000  PyEPFD-Step: 86 positions{angstrom} cell{angstrom}
O       -0.009756895      0.011803827        1.1856569
O      -0.0097569352      0.011803875       -1.1881915
C        0.025994286     -0.031447715     0.0033768089
3
# CELL(abcABC):   10.58354    10.58354    10.58354    90.00000    90.00000    90.00000  PyEPFD-Step: 87 positions{angstrom} cell{angstrom}
O       0.0096398179    -0.0011570717        1.1670937
O       0.0096398576    -0.0011570764       -1.1399444
C        -0.02568237     0.0030826664     -0.036164917
3
# CELL(abcABC):   10.58354    10.58354    10.58354    90.00000    90.00000    90.00000  PyEPFD-Step: 88 positions{angstrom} cell{angstrom}
O       -0.020069138     -0.011590079        1.2032442
O        -0.02006922     -0.011590126       -1.1921353
C        0.053468128      0.030878247     -0.014797519
3
# CELL(abcABC):   10.58354    10.58354    10.58354    90.00000    90.00000    90.00000  PyEPFD-Step: 89 positions{angstrom} cell{angstrom}
O        0.012118088      0.018705739        1.1704411
O        0.012118138      0.018705816       -1.1573041
C       -0.032284969     -0.049835766     -0.017499214
3
# CELL(abcABC):   10.58354    10.58354    10.58354    90.00000    90.00000    90.00000  PyEPFD-Step: 90 positions{angstrom} cell{angstrom}
O       -0.010406583      0.016444334        1.1624226
O       -0.010406626      0.016444401       -1.1706253
C        0.027725182     -0.043810937      0.010927424
3
# CELL(abcABC):   10.58354    10.58354    10.58354    90.00000    90.00000    90.00000  PyEPFD-Step: 91 positions{angstrom} cell{angstrom}
O        0.015002278      0.010766473         1.147175
O         0.01500234      0.010766517       -1.1576479
C       -0.039969018        -0.028684      0.013951465
3
# CELL(abcABC):   10.58354    10.58354    10.58354    90.00000    90.00000    90.00000  PyEPFD-Step: 92 positions{angstrom} cell{angstrom}
O       -0.012850661     0.0028812529        1.1695027
O       -0.012850713     0.0028812648        -1.152086
C        0.034236686    -0.0076762242     -0.023200172
3
# CELL(abcABC):   10.58354    10.58354    10.58354    90.00000    90.00000    90.00000  PyEPFD-Step: 93 positions{angstrom} cell{angstrom}
O       0.0086346357    -0.0055491059        1.1585315
O       0.0086346712    -0.0055491287       -1.1390033
C       -0.023004367      0.014783909     -0.026012913
3
# CELL(abcABC):   10.58354    10.58354    10.58354    90.00000    90.00000    90.00000  PyEPFD-Step: 94 positions{angstrom} cell{angstrom}
O        0.038207733     -0.023637509         1.119665
O         0.03820789     -0.023637607       -1.1133765
C        -0.10179291      0.062974972    -0.0083762794
3
# CELL(abcABC):   10.58354    10.58354    10.58354    90.00000    90.00000    90.00000  PyEPFD-Step: 95 positions{angstrom} cell{angstrom}
O      -0.0094703854    -0.0062127114        1.1570674
O      -0.0094704244     -0.006212737       -1.1507137
C        0.025230968      0.016551884    -0.0084631773
3
# CELL(abcABC):   10.58354    10.58354    10.58354    90.00000    90.00000    90.00000  PyEPFD-Step: 96 positions{angstrom} cell{angstrom}
O        0.035151082     0.0094614625        1.1803374
O        0.035151226     0.0094615015        -1.196804
C       -0.093649391     -0.025207196      0.021935542
3
# CELL(abcABC):   10.58354    10.58354    10.58354    90.00000    90.00000    90.00000  PyEPFD-Step: 97 positions{angstrom} cell{angstrom}
O        0.007397722     -0.010546913        1.1782292
O       0.0073977525     -0.010546956       -1.1929304
C       -0.019708986      0.028099049       0.01958396
3