3
# CELL(abcABC):   10.58354    10.58354    10.58354    90.00000    90.00000    90.00000  PyEPFD-Step: 0 positions{angstrom} cell{angstrom}
O        0.020222984     0.0052719865        1.1572789
O        0.020223068     0.0052720082       -1.1467804
C       -0.053878006     -0.014045608     -0.013984543
3
# CELL(abcABC):   10.58354    10.58354    10.58354    90.00000    90.00000    90.00000  PyEPFD-Step: 1 positions{angstrom} cell{angstrom}
O       -0.020222984    -0.0052719865        1.1569868
O       -0.020223068    -0.0052720082       -1.1674821
C        0.053878006      0.014045608      0.013981368
3
# CELL(abcABC):   10.58354    10.58354    10.58354    90.00000    90.00000    90.00000  PyEPFD-Step: 2 positions{angstrom} cell{angstrom}
O       0.0070902408     0.0015757847        1.1754374
O         0.00709027     0.0015757912       -1.1510093
C       -0.018889795    -0.0041982002     -0.032540133
3
# CELL(abcABC):   10.58354    10.58354    10.58354    90.00000    90.00000    90.00000  PyEPFD-Step: 3 positions{angstrom} cell{angstrom}
O      -0.0070902408    -0.0015757847        1.1388282
O        -0.00709027    -0.0015757912       -1.1632532
C        0.018889795     0.0041982002      0.032536958
3
# CELL(abcABC):   10.58354    10.58354    10.58354    90.00000    90.00000    90.00000  PyEPFD-Step: 4 positions{angstrom} cell{angstrom}
O     -0.00054516505     -0.015809188        1.1386434
O     -0.00054516729     -0.015809253       -1.1499679
C       0.0014524269      0.042118784      0.015085901
3
# CELL(abcABC):   10.58354    10.58354    10.58354    90.00000    90.00000    90.00000  PyEPFD-Step: 5 positions{angstrom} cell{angstrom}
O      0.00054516505      0.015809188        1.1756223
O      0.00054516729      0.015809253       -1.1642946
C      -0.0014524269     -0.042118784     -0.015089076
3
# CELL(abcABC):   10.58354    10.58354    10.58354    90.00000    90.00000    90.00000  PyEPFD-Step: 6 positions{angstrom} cell{angstrom}
O      -0.0052193031     0.0098091697        1.1559608
O      -0.0052193246     0.0098092101       -1.1791447
C        0.013905249     -0.026133556      0.030883657
3
# CELL(abcABC):   10.58354    10.58354    10.58354    90.00000    90.00000    90.00000  PyEPFD-Step: 7 positions{angstrom} cell{angstrom}
O       0.0052193031    -0.0098091697        1.1583048
O       0.0052193246    -0.0098092101       -1.1351178
C       -0.013905249      0.026133556     -0.030886832
3
# CELL(abcABC):   10.58354    10.58354    10.58354    90.00000    90.00000    90.00000  PyEPFD-Step: 8 positions{angstrom} cell{angstrom}
O       0.0078927969      0.028890562        1.1507302
O       0.0078928294      0.028890681       -1.1542063
C       -0.021027963     -0.076970136     0.0046310671
3
# CELL(abcABC):   10.58354    10.58354    10.58354    90.00000    90.00000    90.00000  PyEPFD-Step: 9 positions{angstrom} cell{angstrom}
O      -0.0078927969     -0.028890562        1.1635355
O      -0.0078928294     -0.028890681       -1.1600562
C        0.021027963      0.076970136    -0.0046342422
3
# CELL(abcABC):   10.58354    10.58354    10.58354    90.00000    90.00000    90.00000  PyEPFD-Step: 10 positions{angstrom} cell{angstrom}
O       0.0053470912   -9.5542198e-05         1.148815
O       0.0053471132   -9.5542591e-05       -1.1510459
C       -0.014245702     0.0002545432     0.0029723533
3
# CELL(abcABC):   10.58354    10.58354    10.58354    90.00000    90.00000    90.00000  PyEPFD-Step: 11 positions{angstrom} cell{angstrom}
O      -0.0053470912    9.5542198e-05        1.1654507
O      -0.0053471132    9.5542591e-05       -1.1632166
C        0.014245702    -0.0002545432    -0.0029755283
3
# CELL(abcABC):   10.58354    10.58354    10.58354    90.00000    90.00000    90.00000  PyEPFD-Step: 12 positions{angstrom} cell{angstrom}
O       0.0026145042      0.010935521        1.1381711
O        0.002614515      0.010935566       -1.1516154
C      -0.0069655533     -0.029134378      0.017909622
3
# CELL(abcABC):   10.58354    10.58354    10.58354    90.00000    90.00000    90.00000  PyEPFD-Step: 13 positions{angstrom} cell{angstrom}
O      -0.0026145042     -0.010935521        1.1760946
O       -0.002614515     -0.010935566       -1.1626471
C       0.0069655533      0.029134378     -0.017912797
3
# CELL(abcABC):   10.58354    10.58354    10.58354    90.00000    90.00000    90.00000  PyEPFD-Step: 14 positions{angstrom} cell{angstrom}
O      -0.0074181335     -0.010539017        1.1542799
O       -0.007418164      -0.01053906       -1.1502868
C        0.019763366      0.028078012    -0.0053186336
3
# CELL(abcABC):   10.58354    10.58354    10.58354    90.00000    90.00000    90.00000  PyEPFD-Step: 15 positions{angstrom} cell{angstrom}
O       0.0074181335      0.010539017        1.1599858
O        0.007418164       0.01053906       -1.1639757
C       -0.019763366     -0.028078012     0.0053154586
3
# CELL(abcABC):   10.58354    10.58354    10.58354    90.00000    90.00000    90.00000  PyEPFD-Step: 16 positions{angstrom} cell{angstrom}
O        0.018283375    -0.0073498953        1.1795643
O         0.01828345    -0.0073499256       -1.1657418
C       -0.048710504      0.019581566      -0.01841228
3
# CELL(abcABC):   10.58354    10.58354    10.58354    90.00000    90.00000    90.00000  PyEPFD-Step: 17 positions{angstrom} cell{angstrom}
O       -0.018283375     0.0073498953        1.1347014
O        -0.01828345     0.0073499256       -1.1485207
C        0.048710504     -0.019581566      0.018409105
3
# CELL(abcABC):   10.58354    10.58354    10.58354    90.00000    90.00000    90.00000  PyEPFD-Step: 18 positions{angstrom} cell{angstrom}
O       -0.034041107     0.0018216854         1.152237
O       -0.034041247     0.0018216929       -1.1386179
C        0.090692201     -0.004853328     -0.018141532
3
# CELL(abcABC):   10.58354    10.58354    10.58354    90.00000    90.00000    90.00000  PyEPFD-Step: 19 positions{angstrom} cell{angstrom}
O        0.034041107    -0.0018216854        1.1620286
O        0.034041247    -0.0018216929       -1.1756447
C       -0.090692201      0.004853328      0.018138357
3
# CELL(abcABC):   10.58354    10.58354    10.58354    90.00000    90.00000    90.00000  PyEPFD-Step: 20 positions{angstrom} cell{angstrom}
O      -0.0091817126    -0.0092293159        1.1507276
O      -0.0091817504    -0.0092293538       -1.1454881
C        0.024461887      0.024588712    -0.0069789727
3
# CELL(abcABC):   10.58354    10.58354    10.58354    90.00000    90.00000    90.00000  PyEPFD-Step: 21 positions{angstrom} cell{angstrom}
O       0.0091817126     0.0092293159        1.1635381
O       0.0091817504     0.0092293538       -1.1687744
C       -0.024461887     -0.024588712     0.0069757977
3
# CELL(abcABC):   10.58354    10.58354    10.58354    90.00000    90.00000    90.00000  PyEPFD-Step: 22 positions{angstrom} cell{angstrom}
O       0.0011620587     0.0024258886        1.1577219
O       0.0011620635     0.0024258985       -1.1556171
C      -0.0030959528     -0.006463044    -0.0028032813
3
# CELL(abcABC):   10.58354    10.58354    10.58354    90.00000    90.00000    90.00000  PyEPFD-Step: 23 positions{angstrom} cell{angstrom}
O      -0.0011620587    -0.0024258886        1.1565438
O      -0.0011620635    -0.0024258985       -1.1586454
C       0.0030959528      0.006463044     0.0028001063
3
# CELL(abcABC):   10.58354    10.58354    10.58354    90.00000    90.00000    90.00000  PyEPFD-Step: 24 positions{angstrom} cell{angstrom}
O      -0.0076549538      0.014052738        1.1336031
O      -0.0076549853      0.014052796       -1.1535645
C        0.020394302     -0.037439256      0.026591032
3
# CELL(abcABC):   10.58354    10.58354    10.58354    90.00000    90.00000    90.00000  PyEPFD-Step: 25 positions{angstrom} cell{angstrom}
O       0.0076549538     -0.014052738        1.1806626
O       0.0076549853     -0.014052796        -1.160698
C       -0.020394302      0.037439256     -0.026594207
3
# CELL(abcABC):   10.58354    10.58354    10.58354    90.00000    90.00000    90.00000  PyEPFD-Step: 26 positions{angstrom} cell{angstrom}
O        0.009009796     0.0085759863        1.1458102
O       0.0090098331     0.0085760216        -1.152844
C       -0.024003868     -0.022848113      0.009370212
3
# CELL(abcABC):   10.58354    10.58354    10.58354    90.00000    90.00000    90.00000  PyEPFD-Step: 27 positions{angstrom} cell{angstrom}
O       -0.009009796    -0.0085759863        1.1684555
O      -0.0090098331    -0.0085760216       -1.1614185
C        0.024003868      0.022848113     -0.009373387
3
# CELL(abcABC):   10.58354    10.58354    10.58354    90.00000    90.00000    90.00000  PyEPFD-Step: 28 positions{angstrom} cell{angstrom}
O      -0.0054927302     0.0043955713        1.1466766
O      -0.0054927529     0.0043955894       -1.1568795
C        0.014633713     -0.011710666      0.013591772
3
# CELL(abcABC):   10.58354    10.58354    10.58354    90.00000    90.00000    90.00000  PyEPFD-Step: 29 positions{angstrom} cell{angstrom}
O       0.0054927302    -0.0043955713        1.1675891
O       0.0054927529    -0.0043955894        -1.157383
C       -0.014633713      0.011710666     -0.013594948
3
# CELL(abcABC):   10.58354    10.58354    10.58354    90.00000    90.00000    90.00000  PyEPFD-Step: 30 positions{angstrom} cell{angstrom}
O       -0.023839883      0.010572995        1.1189754
O       -0.023839981      0.010573038       -1.1335903
C        0.063514134     -0.028168537      0.019468934
3
# CELL(abcABC):   10.58354    10.58354    10.58354    90.00000    90.00000    90.00000  PyEPFD-Step: 31 positions{angstrom} cell{angstrom}
O        0.023839883     -0.010572995        1.1952903
O        0.023839981     -0.010573038       -1.1806722
C       -0.063514134      0.028168537     -0.019472109
3
# CELL(abcABC):   10.58354    10.58354    10.58354    90.00000    90.00000    90.00000  PyEPFD-Step: 32 positions{angstrom} cell{angstrom}
O      0.00055459391    0.00093606896        1.1926568
O       0.0005545962    0.00093607281       -1.1931525
C      -0.0014775472    -0.0024938717    0.00066074233
3
# CELL(abcABC):   10.58354    10.58354    10.58354    90.00000    90.00000    90.00000  PyEPFD-Step: 33 positions{angstrom} cell{angstrom}
O     -0.00055459391   -0.00093606896        1.1216088
O      -0.0005545962   -0.00093607281         -1.12111
C       0.0014775472     0.0024938717   -0.00066391739
3
# CELL(abcABC):   10.58354    10.58354    10.58354    90.00000    90.00000    90.00000  PyEPFD-Step: 34 positions{angstrom} cell{angstrom}
O       0.0015118291       0.00774049        1.1955042
O       0.0015118353     0.0077405218       -1.1813532
C      -0.0040278099     -0.020622187     -0.018850029
3
# CELL(abcABC):   10.58354    10.58354    10.58354    90.00000    90.00000    90.00000  PyEPFD-Step: 35 positions{angstrom} cell{angstrom}
O      -0.0015118291      -0.00774049        1.1187614
O      -0.0015118353    -0.0077405218       -1.1329093
C       0.0040278099      0.020622187      0.018846854
3
# CELL(abcABC):   10.58354    10.58354    10.58354    90.00000    90.00000    90.00000  PyEPFD-Step: 36 positions{angstrom} cell{angstrom}
O        0.025253441      -0.01960789         1.159559
O        0.025253545     -0.019607971       -1.1479166
C        -0.06728013      0.052239274     -0.015508182
3
# CELL(abcABC):   10.58354    10.58354    10.58354    90.00000    90.00000    90.00000  PyEPFD-Step: 37 positions{angstrom} cell{angstrom}
O       -0.025253441       0.01960789        1.1547067
O       -0.025253545      0.019607971       -1.1663459
C         0.06728013     -0.052239274      0.015505006
3
# CELL(abcABC):   10.58354    10.58354    10.58354    90.00000    90.00000    90.00000  PyEPFD-Step: 38 positions{angstrom} cell{angstrom}
O      -0.0051280494     -0.015661642        1.1744241
O      -0.0051280705     -0.015661707       -1.1614525
C        0.013662132      0.041725694     -0.017278808
3
# CELL(abcABC):   10.58354    10.58354    10.58354    90.00000    90.00000    90.00000  PyEPFD-Step: 39 positions{angstrom} cell{angstrom}
O       0.0051280494      0.015661642        1.1398416
O       0.0051280705      0.015661707         -1.15281
C       -0.013662132     -0.041725694      0.017275633
3
# CELL(abcABC):   10.58354    10.58354    10.58354    90.00000    90.00000    90.00000  PyEPFD-Step: 40 positions{angstrom} cell{angstrom}
O       -0.008921601     0.0013609983        1.1663767
O      -0.0089216377     0.0013610039       -1.1643593
C        0.023768899    -0.0036259671    -0.0026869036
3
# CELL(abcABC):   10.58354    10.58354    10.58354    90.00000    90.00000    90.00000  PyEPFD-Step: 41 positions{angstrom} cell{angstrom}
O        0.008921601    -0.0013609983         1.147889
O       0.0089216377    -0.0013610039       -1.1499032
C       -0.023768899     0.0036259671     0.0026837285
3
# CELL(abcABC):   10.58354    10.58354    10.58354    90.00000    90.00000    90.00000  PyEPFD-Step: 42 positions{angstrom} cell{angstrom}
O       -0.014917523     -0.017413555        1.1995136
O       -0.014917585     -0.017413626       -1.1899301
C        0.039743214      0.046393132     -0.012765612
3
# CELL(abcABC):   10.58354    10.58354    10.58354    90.00000    90.00000    90.00000  PyEPFD-Step: 43 positions{angstrom} cell{angstrom}
O        0.014917523      0.017413555        1.1147521
O        0.014917585      0.017413626       -1.1243324
C       -0.039743214     -0.046393132      0.012762436
3
# CELL(abcABC):   10.58354    10.58354    10.58354    90.00000    90.00000    90.00000  PyEPFD-Step: 44 positions{angstrom} cell{angstrom}
O       -0.020991411      0.013625571        1.1673221
O       -0.020991498      0.013625627       -1.1833923
C        0.055925247       -0.0363012      0.021407468
3
# CELL(abcABC):   10.58354    10.58354    10.58354    90.00000    90.00000    90.00000  PyEPFD-Step: 45 positions{angstrom} cell{angstrom}
O        0.020991411     -0.013625571        1.1469435
O        0.020991498     -0.013625627       -1.1308702
C       -0.055925247        0.0363012     -0.021410643
3
# CELL(abcABC):   10.58354    10.58354    10.58354    90.00000    90.00000    90.00000  PyEPFD-Step: 46 positions{angstrom} cell{angstrom}
O         0.01999961     -0.012015387        1.1973919
O        0.019999692     -0.012015436       -1.2020449
C       -0.053282893      0.032011352     0.0061987495
3
# CELL(abcABC):   10.58354    10.58354    10.58354    90.00000    90.00000    90.00000  PyEPFD-Step: 47 positions{angstrom} cell{angstrom}
O        -0.01999961      0.012015387        1.1168738
O       -0.019999692      0.012015436       -1.1122176
C        0.053282893     -0.032011352    -0.0062019246
3
# CELL(abcABC):   10.58354    10.58354    10.58354    90.00000    90.00000    90.00000  PyEPFD-Step: 48 positions{angstrom} cell{angstrom}
O      0.00038073544     -0.010524246        1.2077634
O        0.000380737     -0.010524289       -1.1873892
C       -0.001014354      0.028038659      -0.02713984
3
# CELL(abcABC):   10.58354    10.58354    10.58354    90.00000    90.00000    90.00000  PyEPFD-Step: 49 positions{angstrom} cell{angstrom}
O     -0.00038073544      0.010524246        1.1065023
O       -0.000380737      0.010524289       -1.1268733
C        0.001014354     -0.028038659      0.027136664
3
# CELL(abcABC):   10.58354    10.58354    10.58354    90.00000    90.00000    90.00000  PyEPFD-Step: 50 positions{angstrom} cell{angstrom}
O       -0.009289346      0.017661829        1.1648372
O      -0.0092893842      0.017661902       -1.1611729
C        0.024748644     -0.047054584    -0.0048807862
3
# CELL(abcABC):   10.58354    10.58354    10.58354    90.00000    90.00000    90.00000  PyEPFD-Step: 51 positions{angstrom} cell{angstrom}
O        0.009289346     -0.017661829        1.1494284
O       0.0092893842     -0.017661902       -1.1530896
C       -0.024748644      0.047054584     0.0048776112
3
# CELL(abcABC):   10.58354    10.58354    10.58354    90.00000    90.00000    90.00000  PyEPFD-Step: 52 positions{angstrom} cell{angstrom}
O        0.022426589      0.024080114        1.1506999
O        0.022426682      0.024080213       -1.1487654
C       -0.059748843     -0.064154156    -0.0025763655
3
# CELL(abcABC):   10.58354    10.58354    10.58354    90.00000    90.00000    90.00000  PyEPFD-Step: 53 positions{angstrom} cell{angstrom}
O       -0.022426589     -0.024080114        1.1635658
O       -0.022426682     -0.024080213       -1.1654971
C        0.059748843      0.064154156     0.0025731904
3
# CELL(abcABC):   10.58354    10.58354    10.58354    90.00000    90.00000    90.00000  PyEPFD-Step: 54 positions{angstrom} cell{angstrom}
O       -0.020840813      0.017413568        1.1348444
O       -0.020840899       0.01741364       -1.1156708
C        0.055524023     -0.046393169     -0.025540614
3
# CELL(abcABC):   10.58354    10.58354    10.58354    90.00000    90.00000    90.00000  PyEPFD-Step: 55 positions{angstrom} cell{angstrom}
O        0.020840813     -0.017413568        1.1794212
O        0.020840899      -0.01741364       -1.1985917
C       -0.055524023      0.046393169      0.025537439
3
# CELL(abcABC):   10.58354    10.58354    10.58354    90.00000    90.00000    90.00000  PyEPFD-Step: 56 positions{angstrom} cell{angstrom}
O        0.023212355    -0.0022281576         1.111038
O        0.023212451    -0.0022281667       -1.1274376
C       -0.061842277     0.0059362498      0.021846384
3
# CELL(abcABC):   10.58354    10.58354    10.58354    90.00000    90.00000    90.00000  PyEPFD-Step: 57 positions{angstrom} cell{angstrom}
O       -0.023212355     0.0022281576        1.2032277
O       -0.023212451     0.0022281667       -1.1868249
C        0.061842277    -0.0059362498     -0.021849559
3
# CELL(abcABC):   10.58354    10.58354    10.58354    90.00000    90.00000    90.00000  PyEPFD-Step: 58 positions{angstrom} cell{angstrom}
O       -0.015203807    -0.0079401119        1.1372268
O       -0.015203869    -0.0079401446       -1.1337225
C         0.04050593      0.021154019    -0.0046675527
3
# CELL(abcABC):   10.58354    10.58354    10.58354    90.00000    90.00000    90.00000  PyEPFD-Step: 59 positions{angstrom} cell{angstrom}
O        0.015203807     0.0079401119        1.1770389
O        0.015203869     0.0079401446       -1.1805401
C        -0.04050593     -0.021154019     0.0046643776
3
# CELL(abcABC):   10.58354    10.58354    10.58354    90.00000    90.00000    90.00000  PyEPFD-Step: 60 positions{angstrom} cell{angstrom}
O        0.015537093     0.0059488373         1.136838
O        0.015537157     0.0059488618       -1.1373917
C       -0.041393871     -0.015848872    0.00073813078
3
# CELL(abcABC):   10.58354    10.58354    10.58354    90.00000    90.00000    90.00000  PyEPFD-Step: 61 positions{angstrom} cell{angstrom}
O       -0.015537093    -0.0059488373        1.1774277
O       -0.015537157    -0.0059488618       -1.1768708
C        0.041393871      0.015848872   -0.00074130584
3
# CELL(abcABC):   10.58354    10.58354    10.58354    90.00000    90.00000    90.00000  PyEPFD-Step: 62 positions{angstrom} cell{angstrom}
O       -0.003742538      0.013743106        1.1711041
O      -0.0037425534      0.013743163       -1.1794246
C       0.0099708569     -0.036614336      0.011084217
3
# CELL(abcABC):   10.58354    10.58354    10.58354    90.00000    90.00000    90.00000  PyEPFD-Step: 63 positions{angstrom} cell{angstrom}
O        0.003742538     -0.013743106        1.1431616
O       0.0037425534     -0.013743163       -1.1348379
C      -0.0099708569      0.036614336     -0.011087392
3
# CELL(abcABC):   10.58354    10.58354    10.58354    90.00000    90.00000    90.00000  PyEPFD-Step: 64 positions{angstrom} cell{angstrom}
O        0.015073313    0.00024832344         1.152683
O        0.015073375    0.00024832446        -1.150837
C       -0.040158269   -0.00066158246     -0.002458593
3
# CELL(abcABC):   10.58354    10.58354    10.58354    90.00000    90.00000    90.00000  PyEPFD-Step: 65 positions{angstrom} cell{angstrom}
O       -0.015073313   -0.00024832344        1.1615827
O       -0.015073375   -0.00024832446       -1.1634256
C        0.040158269    0.00066158246     0.0024554179
3
# CELL(abcABC):   10.58354    10.58354    10.58354    90.00000    90.00000    90.00000  PyEPFD-Step: 66 positions{angstrom} cell{angstrom}
O      0.00052369064      0.025022624        1.1619322
O       0.0005236928      0.025022727       -1.1777855
C      -0.0013952148     -0.066665188      0.021118591
3
# CELL(abcABC):   10.58354    10.58354    10.58354    90.00000    90.00000    90.00000  PyEPFD-Step: 67 positions{angstrom} cell{angstrom}
O     -0.00052369064     -0.025022624        1.1523335
O      -0.0005236928     -0.025022727       -1.1364771
C       0.0013952148      0.066665188     -0.021121766
3
# CELL(abcABC):   10.58354    10.58354    10.58354    90.00000    90.00000    90.00000  PyEPFD-Step: 68 positions{angstrom} cell{angstrom}
O       0.0068973829     -0.011134436        1.1549615
O       0.0068974113     -0.011134482       -1.1934396
C       -0.018375984      0.029664326      0.051256981
3
# CELL(abcABC):   10.58354    10.58354    10.58354    90.00000    90.00000    90.00000  PyEPFD-Step: 69 positions{angstrom} cell{angstrom}
O      -0.0068973829      0.011134436        1.1593041
O      -0.0068974113      0.011134482       -1.1208229
C        0.018375984     -0.029664326     -0.051260157
3
# CELL(abcABC):   10.58354    10.58354    10.58354    90.00000    90.00000    90.00000  PyEPFD-Step: 70 positions{angstrom} cell{angstrom}
O        0.017768313     0.0082206125         1.121751
O        0.017768387     0.0082206464       -1.1534471
C        -0.04733828     -0.021901328      0.042222676
3
# CELL(abcABC):   10.58354    10.58354    10.58354    90.00000    90.00000    90.00000  PyEPFD-Step: 71 positions{angstrom} cell{angstrom}
O       -0.017768313    -0.0082206125        1.1925146
O       -0.017768387    -0.0082206464       -1.1608154
C         0.04733828      0.021901328     -0.042225851
3
# CELL(abcABC):   10.58354    10.58354    10.58354    90.00000    90.00000    90.00000  PyEPFD-Step: 72 positions{angstrom} cell{angstrom}
O        0.031600747     -0.014085431        1.1707706
O        0.031600878     -0.014085489       -1.1464885
C       -0.084190603      0.037526358     -0.032345597
3
# CELL(abcABC):   10.58354    10.58354    10.58354    90.00000    90.00000    90.00000  PyEPFD-Step: 73 positions{angstrom} cell{angstrom}
O       -0.031600747      0.014085431         1.143495
O       -0.031600878      0.014085489        -1.167774
C        0.084190603     -0.037526358      0.032342422
3
# CELL(abcABC):   10.58354    10.58354    10.58354    90.00000    90.00000    90.00000  PyEPFD-Step: 74 positions{angstrom} cell{angstrom}
O        0.028150694     -0.038893028        1.2206803
O         0.02815081     -0.038893188       -1.1843306
C       -0.074998982       0.10361867     -0.048420674
3
# CELL(abcABC):   10.58354    10.58354    10.58354    90.00000    90.00000    90.00000  PyEPFD-Step: 75 positions{angstrom} cell{angstrom}
O       -0.028150694      0.038893028        1.0935854
O        -0.02815081      0.038893188       -1.1299319
C        0.074998982      -0.10361867      0.048417499
3
# CELL(abcABC):   10.58354    10.58354    10.58354    90.00000    90.00000    90.00000  PyEPFD-Step: 76 positions{angstrom} cell{angstrom}
O        0.011443749      0.016519616        1.1939203
O        0.011443796      0.016519684       -1.1691156
C       -0.030488396     -0.044011506     -0.033041659
3
# CELL(abcABC):   10.58354    10.58354    10.58354    90.00000    90.00000    90.00000  PyEPFD-Step: 77 positions{angstrom} cell{angstrom}
O       -0.011443749     -0.016519616        1.1203454
O       -0.011443796     -0.016519684       -1.1451469
C        0.030488396      0.044011506      0.033038484
3
# CELL(abcABC):   10.58354    10.58354    10.58354    90.00000    90.00000    90.00000  PyEPFD-Step: 78 positions{angstrom} cell{angstrom}
O        0.011732277      0.010482369        1.1865286
O        0.011732325      0.010482412       -1.1756656
C       -0.031257093     -0.027927092     -0.014469919
3
# CELL(abcABC):   10.58354    10.58354    10.58354    90.00000    90.00000    90.00000  PyEPFD-Step: 79 positions{angstrom} cell{angstrom}
O       -0.011732277     -0.010482369        1.1277371
O       -0.011732325     -0.010482412       -1.1385969
C        0.031257093      0.027927092      0.014466744
3
# CELL(abcABC):   10.58354    10.58354    10.58354    90.00000    90.00000    90.00000  PyEPFD-Step: 80 positions{angstrom} cell{angstrom}
O        0.013639712     -0.003431954        1.1538847
O        0.013639769    -0.0034319681       -1.1411483
C       -0.036338875     0.0091434001     -0.016965547
3
# CELL(abcABC):   10.58354    10.58354    10.58354    90.00000    90.00000    90.00000  PyEPFD-Step: 81 positions{angstrom} cell{angstrom}
O       -0.013639712      0.003431954         1.160381
O       -0.013639769     0.0034319681       -1.1731142
C        0.036338875    -0.0091434001      0.016962372
3
# CELL(abcABC):   10.58354    10.58354    10.58354    90.00000    90.00000    90.00000  PyEPFD-Step: 82 positions{angstrom} cell{angstrom}
O       -0.021946214    -0.0049478888        1.1684969
O       -0.021946304    -0.0049479092       -1.1737867
C        0.058469028      0.013182149     0.0070470698
3
# CELL(abcABC):   10.58354    10.58354    10.58354    90.00000    90.00000    90.00000  PyEPFD-Step: 83 positions{angstrom} cell{angstrom}
O        0.021946214     0.0049478888        1.1457688
O        0.021946304     0.0049479092       -1.1404758
C       -0.058469028     -0.013182149    -0.0070502448
3
# CELL(abcABC):   10.58354    10.58354    10.58354    90.00000    90.00000    90.00000  PyEPFD-Step: 84 positions{angstrom} cell{angstrom}
O      -0.0074308821     -0.029302506          1.20336
O      -0.0074309127     -0.029302626       -1.2153795
C        0.019797331      0.078067636      0.016011575
3
# CELL(abcABC):   10.58354    10.58354    10.58354    90.00000    90.00000    90.00000  PyEPFD-Step: 85 positions{angstrom} cell{angstrom}
O       0.0074308821      0.029302506        1.1109056
O       0.0074309127      0.029302626        -1.098883
C       -0.019797331     -0.078067636      -0.01601475
3
# CELL(abcABC):   10.58354    10.58354    10.58354    90.00000    90.00000    90.00000  PyEPFD-Step: 86 positions{angstrom} cell{angstrom}
O        0.022730342      0.011811421        1.1541806
O        0.022730435       0.01181147         -1.16231
C       -0.060558099     -0.031467948      0.010829538
3
# CELL(abcABC):   10.58354    10.58354    10.58354    90.00000    90.00000    90.00000  PyEPFD-Step: 87 positions{angstrom} cell{angstrom}
O       -0.022730342     -0.011811421         1.160085
O       -0.022730435      -0.01181147       -1.1519526
C        0.060558099      0.031467948     -0.010832713
3
# CELL(abcABC):   10.58354    10.58354    10.58354    90.00000    90.00000    90.00000  PyEPFD-Step: 88 positions{angstrom} cell{angstrom}
O       -0.014035682     -0.013941996        1.1257161
O       -0.014035739     -0.013942053       -1.1337925
C        0.037393815      0.037144218      0.010759079
3
# CELL(abcABC):   10.58354    10.58354    10.58354    90.00000    90.00000    90.00000  PyEPFD-Step: 89 positions{angstrom} cell{angstrom}
O        0.014035682      0.013941996        1.1885496
O        0.014035739      0.013942053         -1.18047
C       -0.037393815     -0.037144218     -0.010762254
3
# CELL(abcABC):   10.58354    10.58354    10.58354    90.00000    90.00000    90.00000  PyEPFD-Step: 90 positions{angstrom} cell{angstrom}
O      -0.0054619519    -0.0043366661        1.1575999
O      -0.0054619744    -0.0043366839       -1.1330263
C        0.014551714      0.011553731     -0.032733842
3
# CELL(abcABC):   10.58354    10.58354    10.58354    90.00000    90.00000    90.00000  PyEPFD-Step: 91 positions{angstrom} cell{angstrom}
O       0.0054619519     0.0043366661        1.1566658
O       0.0054619744     0.0043366839       -1.1812362
C       -0.014551714     -0.011553731      0.032730667
3
# CELL(abcABC):   10.58354    10.58354    10.58354    90.00000    90.00000    90.00000  PyEPFD-Step: 92 positions{angstrom} cell{angstrom}
O       -0.017002986     -0.013356622        1.1589701
O       -0.017003056     -0.013356677       -1.1567109
C        0.045299297      0.035584666    -0.0030090143
3
# CELL(abcABC):   10.58354    10.58354    10.58354    90.00000    90.00000    90.00000  PyEPFD-Step: 93 positions{angstrom} cell{angstrom}
O        0.017002986      0.013356622        1.1552955
O        0.017003056      0.013356677       -1.1575516
C       -0.045299297     -0.035584666     0.0030058393
3
# CELL(abcABC):   10.58354    10.58354    10.58354    90.00000    90.00000    90.00000  PyEPFD-Step: 94 positions{angstrom} cell{angstrom}
O      -0.0069376428     -0.024277899        1.1537134
O      -0.0069376714     -0.024277998       -1.1815341
C        0.018483244      0.064681094      0.037060283
3
# CELL(abcABC):   10.58354    10.58354    10.58354    90.00000    90.00000    90.00000  PyEPFD-Step: 95 positions{angstrom} cell{angstrom}
O       0.0069376428      0.024277899        1.1605522
O       0.0069376714      0.024277998       -1.1327284
C       -0.018483244     -0.064681094     -0.037063458
3
# CELL(abcABC):   10.58354    10.58354    10.58354    90.00000    90.00000    90.00000  PyEPFD-Step: 96 positions{angstrom} cell{angstrom}
O      -0.0039030171      0.013219488        1.1499526
O      -0.0039030332      0.013219543       -1.1336798
C        0.010398405     -0.035219316     -0.021676362
3
# CELL(abcABC):   10.58354    10.58354    10.58354    90.00000    90.00000    90.00000  PyEPFD-Step: 97 positions{angstrom} cell{angstrom}
O       0.0039030171     -0.013219488        1.1643131
O       0.0039030332     -0.013219543       -1.1805827
C       -0.010398405      0.035219316      0.021673187
3