3
# CELL(abcABC):   10.58354    10.58354    10.58354    90.00000    90.00000    90.00000  PyEPFD-Step: 0 positions{angstrom} cell{angstrom}
O       -0.020731185     0.0037963903        1.1628496
O       -0.020730521     0.0037962011       -1.1549277
C        0.054350171    -0.0099531556      -0.01035148
3
# CELL(abcABC):   10.58354    10.58354    10.58354    90.00000    90.00000    90.00000  PyEPFD-Step: 1 positions{angstrom} cell{angstrom}
O      -0.0026517974      0.026043526        1.1547547
O      -0.0026516173      0.026042766        -1.149442
C       0.0069499674     -0.068279469    -0.0069417607
3
# CELL(abcABC):   10.58354    10.58354    10.58354    90.00000    90.00000    90.00000  PyEPFD-Step: 2 positions{angstrom} cell{angstrom}
O       0.0031189675      0.022354973        1.1711527
O       0.0031189365      0.022354317       -1.1705564
C      -0.0081787874     -0.058608976   -0.00077867304
3
# CELL(abcABC):   10.58354    10.58354    10.58354    90.00000    90.00000    90.00000  PyEPFD-Step: 3 positions{angstrom} cell{angstrom}
O       -0.017668828     -0.027608174        1.1708426
O       -0.017668385     -0.027607456       -1.1767188
C         0.04632431        0.0723816     0.0076791172
3
# CELL(abcABC):   10.58354    10.58354    10.58354    90.00000    90.00000    90.00000  PyEPFD-Step: 4 positions{angstrom} cell{angstrom}
O       0.0060484035      0.016299698        1.1416648
O        0.006048278      0.016299264       -1.1569836
C       -0.015858341      -0.04273368      0.020018544
3
# CELL(abcABC):   10.58354    10.58354    10.58354    90.00000    90.00000    90.00000  PyEPFD-Step: 5 positions{angstrom} cell{angstrom}
O      0.00010942426    0.00078889648        1.1408402
O      0.00010944219    0.00078889796       -1.1314431
C     -0.00028696629    -0.0020683327     -0.012279175
3
# CELL(abcABC):   10.58354    10.58354    10.58354    90.00000    90.00000    90.00000  PyEPFD-Step: 6 positions{angstrom} cell{angstrom}
O      -0.0096615011      0.017284144        1.1196277
O      -0.0096611037      0.017283658       -1.1213262
C        0.025327851     -0.045314716     0.0022202555
3
# CELL(abcABC):   10.58354    10.58354    10.58354    90.00000    90.00000    90.00000  PyEPFD-Step: 7 positions{angstrom} cell{angstrom}
O       -0.026433656     0.0091815775        1.1705879
O       -0.026432803     0.0091812008       -1.1661488
C        0.069299773     -0.024071718    -0.0058003048
3
# CELL(abcABC):   10.58354    10.58354    10.58354    90.00000    90.00000    90.00000  PyEPFD-Step: 8 positions{angstrom} cell{angstrom}
O        0.005203943    -0.0002913531        1.1476348
O        0.005203772    -0.0002913219       -1.1811061
C       -0.013643027    0.00076383002      0.043739292
3
# CELL(abcABC):   10.58354    10.58354    10.58354    90.00000    90.00000    90.00000  PyEPFD-Step: 9 positions{angstrom} cell{angstrom}
O       -0.005947275      0.032911987        1.1581986
O      -0.0059469805      0.032911006       -1.1767316
C        0.015589091     -0.086286807      0.024218732
3
# CELL(abcABC):   10.58354    10.58354    10.58354    90.00000    90.00000    90.00000  PyEPFD-Step: 10 positions{angstrom} cell{angstrom}
O       0.0031435443     0.0097065925        1.1255824
O       0.0031435088     0.0097063646       -1.1235582
C      -0.0082422127     -0.025448292    -0.0026445166
3
# CELL(abcABC):   10.58354    10.58354    10.58354    90.00000    90.00000    90.00000  PyEPFD-Step: 11 positions{angstrom} cell{angstrom}
O       -0.021604865    -0.0040891186        1.1824095
O       -0.021604213    -0.0040891045       -1.1595225
C        0.056641354      0.010720686     -0.029907274
3
# CELL(abcABC):   10.58354    10.58354    10.58354    90.00000    90.00000    90.00000  PyEPFD-Step: 12 positions{angstrom} cell{angstrom}
O        -0.02294019     0.0098160469        1.1754858
O       -0.022939451      0.009815656       -1.1777821
C        0.060140986     -0.025735118     0.0030012306
3
# CELL(abcABC):   10.58354    10.58354    10.58354    90.00000    90.00000    90.00000  PyEPFD-Step: 13 positions{angstrom} cell{angstrom}
O       -0.027594732      0.005288755          1.16778
O       -0.027593848     0.0052884938       -1.1514707
C        0.072344055     -0.013865743     -0.021311717
3
# CELL(abcABC):   10.58354    10.58354    10.58354    90.00000    90.00000    90.00000  PyEPFD-Step: 14 positions{angstrom} cell{angstrom}
O        0.010634531     -0.021651033        1.1717099
O        0.010634105     -0.021650388       -1.1759072
C       -0.027878478      0.056763514     0.0054851995
3
# CELL(abcABC):   10.58354    10.58354    10.58354    90.00000    90.00000    90.00000  PyEPFD-Step: 15 positions{angstrom} cell{angstrom}
O       0.0054059676    -0.0089036652         1.157303
O       0.0054057622    -0.0089033903       -1.1659517
C       -0.014171953      0.023343135      0.011302185
3
# CELL(abcABC):   10.58354    10.58354    10.58354    90.00000    90.00000    90.00000  PyEPFD-Step: 16 positions{angstrom} cell{angstrom}
O       0.0016976843      0.023987671        1.1466016
O       0.0016977303      0.023986999        -1.135247
C      -0.0044528131     -0.062889566     -0.014837153
3
# CELL(abcABC):   10.58354    10.58354    10.58354    90.00000    90.00000    90.00000  PyEPFD-Step: 17 positions{angstrom} cell{angstrom}
O      -0.0056077054     -0.016351768        1.1683232
O      -0.0056075992      -0.01635133       -1.1731496
C        0.014702985      0.042870183     0.0063073694
3
# CELL(abcABC):   10.58354    10.58354    10.58354    90.00000    90.00000    90.00000  PyEPFD-Step: 18 positions{angstrom} cell{angstrom}
O       -0.021869072     -0.020100234        1.1614771
O       -0.021868468     -0.020099739       -1.1809579
C        0.057335365      0.052697675        0.0254571
3
# CELL(abcABC):   10.58354    10.58354    10.58354    90.00000    90.00000    90.00000  PyEPFD-Step: 19 positions{angstrom} cell{angstrom}
O        0.009709522     -0.010683233        1.1882728
O       0.0097091638     -0.010682923       -1.1602303
C       -0.025454324      0.028008795     -0.036644361
3
# CELL(abcABC):   10.58354    10.58354    10.58354    90.00000    90.00000    90.00000  PyEPFD-Step: 20 positions{angstrom} cell{angstrom}
O       0.0052491116     -0.013341392        1.1725777
O        0.005248897     -0.013341001       -1.1467836
C       -0.013760359      0.034977762     -0.033706299
3
# CELL(abcABC):   10.58354    10.58354    10.58354    90.00000    90.00000    90.00000  PyEPFD-Step: 21 positions{angstrom} cell{angstrom}
O       0.0044947169     0.0099210395         1.164905
O       0.0044946047     0.0099207579       -1.1633223
C       -0.011784524     -0.026010403    -0.0020676034
3
# CELL(abcABC):   10.58354    10.58354    10.58354    90.00000    90.00000    90.00000  PyEPFD-Step: 22 positions{angstrom} cell{angstrom}
O      -0.0042050164      0.002889008          1.18339
O      -0.0042049031     0.0028888712       -1.1965007
C        0.011023995    -0.0075741639      0.017132999
3
# CELL(abcABC):   10.58354    10.58354    10.58354    90.00000    90.00000    90.00000  PyEPFD-Step: 23 positions{angstrom} cell{angstrom}
O      -0.0018970258      -0.01257759        1.1270961
O      -0.0018969848     -0.012577193        -1.128569
C       0.0049744118      0.032975135     0.0019251505
3
# CELL(abcABC):   10.58354    10.58354    10.58354    90.00000    90.00000    90.00000  PyEPFD-Step: 24 positions{angstrom} cell{angstrom}
O     -0.00028874594      0.012480924        1.1205249
O     -0.00028866395      0.012480608       -1.1289327
C      0.00075591473     -0.032721895      0.010987642
3
# CELL(abcABC):   10.58354    10.58354    10.58354    90.00000    90.00000    90.00000  PyEPFD-Step: 25 positions{angstrom} cell{angstrom}
O     -0.00011333186     -0.010212876        1.1466837
O     -0.00011336671     -0.010212573       -1.1725866
C      0.00029798095       0.02677552      0.033849351
3
# CELL(abcABC):   10.58354    10.58354    10.58354    90.00000    90.00000    90.00000  PyEPFD-Step: 26 positions{angstrom} cell{angstrom}
O      -0.0023413254    0.00055097609        1.1654078
O      -0.0023412613    0.00055093852       -1.1747356
C       0.0061381703    -0.0014444945      0.012189653
3
# CELL(abcABC):   10.58354    10.58354    10.58354    90.00000    90.00000    90.00000  PyEPFD-Step: 27 positions{angstrom} cell{angstrom}
O       0.0097327084     0.0097060525        1.1347841
O       0.0097324365      0.009705824       -1.1802059
C       -0.025516837     -0.025446844      0.059355816
3
# CELL(abcABC):   10.58354    10.58354    10.58354    90.00000    90.00000    90.00000  PyEPFD-Step: 28 positions{angstrom} cell{angstrom}
O        0.028753497      0.010844409        1.1677585
O         0.02875263      0.010844186       -1.1513566
C       -0.075383315     -0.028431224     -0.021432891
3
# CELL(abcABC):   10.58354    10.58354    10.58354    90.00000    90.00000    90.00000  PyEPFD-Step: 29 positions{angstrom} cell{angstrom}
O        0.011513368     -0.015973774        1.1852437
O        0.011512923     -0.015973308       -1.1882681
C       -0.030182967      0.041879234     0.0039525231
3
# CELL(abcABC):   10.58354    10.58354    10.58354    90.00000    90.00000    90.00000  PyEPFD-Step: 30 positions{angstrom} cell{angstrom}
O        0.029511456     0.0022922786         1.187683
O         0.02951051     0.0022922763       -1.1877043
C       -0.077369687     -0.006009668    2.8216094e-05
3
# CELL(abcABC):   10.58354    10.58354    10.58354    90.00000    90.00000    90.00000  PyEPFD-Step: 31 positions{angstrom} cell{angstrom}
O      -0.0045577846      0.035592716        1.1568774
O      -0.0045575135      0.035591669       -1.1535564
C        0.011946055     -0.093314997    -0.0043390952
3
# CELL(abcABC):   10.58354    10.58354    10.58354    90.00000    90.00000    90.00000  PyEPFD-Step: 32 positions{angstrom} cell{angstrom}
O        0.020276453      0.001314878        1.1715283
O        0.020275816      0.001314897        -1.154063
C       -0.053158433    -0.0034472253     -0.022822425
3
# CELL(abcABC):   10.58354    10.58354    10.58354    90.00000    90.00000    90.00000  PyEPFD-Step: 33 positions{angstrom} cell{angstrom}
O        0.021886134     0.0018056166        1.1096798
O        0.021885479     0.0018056966       -1.1430821
C       -0.057378577    -0.0047339921      0.043649287
3
# CELL(abcABC):   10.58354    10.58354    10.58354    90.00000    90.00000    90.00000  PyEPFD-Step: 34 positions{angstrom} cell{angstrom}
O       -0.018151844    -0.0015609699        1.1788341
O       -0.018151301    -0.0015610193       -1.1849226
C        0.047588447     0.0040925204     0.0079566069
3
# CELL(abcABC):   10.58354    10.58354    10.58354    90.00000    90.00000    90.00000  PyEPFD-Step: 35 positions{angstrom} cell{angstrom}
O       -0.032066653    -0.0036941426        1.1756117
O        -0.03206567    -0.0036941715       -1.1667069
C        0.084068758     0.0096851375     -0.011635929
3
# CELL(abcABC):   10.58354    10.58354    10.58354    90.00000    90.00000    90.00000  PyEPFD-Step: 36 positions{angstrom} cell{angstrom}
O       -0.010789304      0.012442202        1.1900928
O       -0.010788936      0.012441767       -1.1585751
C        0.028285053      -0.03262018     -0.041185484
3
# CELL(abcABC):   10.58354    10.58354    10.58354    90.00000    90.00000    90.00000  PyEPFD-Step: 37 positions{angstrom} cell{angstrom}
O      -0.0021125821    -0.0043459097        1.1704333
O      -0.0021125362    -0.0043458051       -1.1552214
C         0.00553888        0.0113939       -0.0198778
3
# CELL(abcABC):   10.58354    10.58354    10.58354    90.00000    90.00000    90.00000  PyEPFD-Step: 38 positions{angstrom} cell{angstrom}
O      -0.0027556184     0.0038508729        1.1475453
O      -0.0027554927     0.0038507737       -1.1093926
C       0.0072239848     -0.010096035     -0.049855851
3
# CELL(abcABC):   10.58354    10.58354    10.58354    90.00000    90.00000    90.00000  PyEPFD-Step: 39 positions{angstrom} cell{angstrom}
O      -0.0031956329     0.0034427324        1.1119907
O      -0.0031954897     0.0034426759       -1.1331873
C       0.0083775925    -0.0090260944      0.027699406
3
# CELL(abcABC):   10.58354    10.58354    10.58354    90.00000    90.00000    90.00000  PyEPFD-Step: 40 positions{angstrom} cell{angstrom}
O      -0.0032991266     0.0062804673        1.1411341
O      -0.0032989908     0.0062802923       -1.1508901
C       0.0086487078     -0.016465825      0.012749314
3
# CELL(abcABC):   10.58354    10.58354    10.58354    90.00000    90.00000    90.00000  PyEPFD-Step: 41 positions{angstrom} cell{angstrom}
O       0.0010714572      0.017436896        1.1760326
O       0.0010714685      0.017436369       -1.1762289
C      -0.0028104564     -0.045715023    0.00025690234
3
# CELL(abcABC):   10.58354    10.58354    10.58354    90.00000    90.00000    90.00000  PyEPFD-Step: 42 positions{angstrom} cell{angstrom}
O       0.0030599637    -0.0096496142        1.1751369
O        0.003059818    -0.0096493471       -1.1736959
C      -0.0080214096      0.025298872    -0.0018826157
3
# CELL(abcABC):   10.58354    10.58354    10.58354    90.00000    90.00000    90.00000  PyEPFD-Step: 43 positions{angstrom} cell{angstrom}
O       -0.010389153     0.0041112556        1.1920749
O       -0.010388849     0.0041110497       -1.2063181
C        0.027236718     -0.010778561      0.018612843
3
# CELL(abcABC):   10.58354    10.58354    10.58354    90.00000    90.00000    90.00000  PyEPFD-Step: 44 positions{angstrom} cell{angstrom}
O       0.0060531759     -0.012266253        1.2082885
O       0.0060529126     -0.012265935       -1.1728642
C       -0.015868412      0.032159125      -0.04629066
3
# CELL(abcABC):   10.58354    10.58354    10.58354    90.00000    90.00000    90.00000  PyEPFD-Step: 45 positions{angstrom} cell{angstrom}
O       -0.022749303     -0.017708149          1.17434
O       -0.022748651     -0.017707731       -1.1422131
C        0.059642827      0.046426273     -0.041981594
3
# CELL(abcABC):   10.58354    10.58354    10.58354    90.00000    90.00000    90.00000  PyEPFD-Step: 46 positions{angstrom} cell{angstrom}
O       -0.010728576      0.024322807        1.1563985
O       -0.010728145      0.024322069       -1.1401924
C        0.028124819     -0.063768183     -0.021176806
3
# CELL(abcABC):   10.58354    10.58354    10.58354    90.00000    90.00000    90.00000  PyEPFD-Step: 47 positions{angstrom} cell{angstrom}
O       -0.017521051    0.00042841386        1.1395452
O       -0.017520475    0.00042836692       -1.1224152
C        0.045934483    -0.0011232505     -0.022384211
3
# CELL(abcABC):   10.58354    10.58354    10.58354    90.00000    90.00000    90.00000  PyEPFD-Step: 48 positions{angstrom} cell{angstrom}
O       0.0041900763     -0.028148286        1.1512223
O       0.0041898521     -0.028147446       -1.1465558
C       -0.010982679      0.073797587    -0.0060974991
3
# CELL(abcABC):   10.58354    10.58354    10.58354    90.00000    90.00000    90.00000  PyEPFD-Step: 49 positions{angstrom} cell{angstrom}
O      -0.0088421398      0.017826405        1.1632794
O      -0.0088418032       0.01782585       -1.1612183
C        0.023179752     -0.046736259    -0.0026928004
3
# CELL(abcABC):   10.58354    10.58354    10.58354    90.00000    90.00000    90.00000  PyEPFD-Step: 50 positions{angstrom} cell{angstrom}
O       0.0096727771     -0.019451484        1.1741679
O       0.0096723847     -0.019450911       -1.1840526
C       -0.025357247      0.050996868      0.012917315
3
# CELL(abcABC):   10.58354    10.58354    10.58354    90.00000    90.00000    90.00000  PyEPFD-Step: 51 positions{angstrom} cell{angstrom}
O        0.001718185    -0.0014346948        1.1659009
O       0.0017181109    -0.0014346628       -1.1823211
C      -0.0045043864     0.0037614299       0.02145764
3
# CELL(abcABC):   10.58354    10.58354    10.58354    90.00000    90.00000    90.00000  PyEPFD-Step: 52 positions{angstrom} cell{angstrom}
O      -0.0066738328    -0.0090316373        1.1452901
O      -0.0066736439    -0.0090313831        -1.143806
C        0.017497382      0.023678605    -0.0019389227
3
# CELL(abcABC):   10.58354    10.58354    10.58354    90.00000    90.00000    90.00000  PyEPFD-Step: 53 positions{angstrom} cell{angstrom}
O        -0.01027266     -0.014446496        1.1495189
O       -0.010272382     -0.014446104       -1.1511565
C         0.02693281       0.03787499     0.0021404272
3
# CELL(abcABC):   10.58354    10.58354    10.58354    90.00000    90.00000    90.00000  PyEPFD-Step: 54 positions{angstrom} cell{angstrom}
O       0.0068701403     -0.019045399        1.1680422
O       0.0068698503     -0.019044835       -1.1609159
C       -0.018009689      0.049932196    -0.0093120447
3
# CELL(abcABC):   10.58354    10.58354    10.58354    90.00000    90.00000    90.00000  PyEPFD-Step: 55 positions{angstrom} cell{angstrom}
O      -0.0055195606    -0.0045043773        1.1424115
O      -0.0055193996    -0.0045042522       -1.1641574
C        0.014470884      0.011809281      0.028417102
3
# CELL(abcABC):   10.58354    10.58354    10.58354    90.00000    90.00000    90.00000  PyEPFD-Step: 56 positions{angstrom} cell{angstrom}
O         0.01885019      0.016564114        1.1495733
O        0.018849663      0.016563711       -1.1489222
C       -0.049420524     -0.043426884    -0.0008503063
3
# CELL(abcABC):   10.58354    10.58354    10.58354    90.00000    90.00000    90.00000  PyEPFD-Step: 57 positions{angstrom} cell{angstrom}
O       -0.022696244     -0.011370316        1.1716978
O       -0.022695568     -0.011370077       -1.1348698
C        0.059503188       0.02981009     -0.048124731
3
# CELL(abcABC):   10.58354    10.58354    10.58354    90.00000    90.00000    90.00000  PyEPFD-Step: 58 positions{angstrom} cell{angstrom}
O        0.035664529       0.01082743        1.1547128
O        0.035663458      0.010827251       -1.1333032
C       -0.093501831     -0.028386747     -0.027976558
3
# CELL(abcABC):   10.58354    10.58354    10.58354    90.00000    90.00000    90.00000  PyEPFD-Step: 59 positions{angstrom} cell{angstrom}
O        0.024144995     0.0024747854        1.1563218
O        0.024144248     0.0024748019       -1.1497758
C       -0.063300611    -0.0064882476    -0.0085535298
3
# CELL(abcABC):   10.58354    10.58354    10.58354    90.00000    90.00000    90.00000  PyEPFD-Step: 60 positions{angstrom} cell{angstrom}
O       0.0061434191    -0.0020152142        1.1559283
O       0.0061432078    -0.0020151392       -1.1832195
C        -0.01610588     0.0052833768      0.035663377
3
# CELL(abcABC):   10.58354    10.58354    10.58354    90.00000    90.00000    90.00000  PyEPFD-Step: 61 positions{angstrom} cell{angstrom}
O        -0.03040078     -0.010496302        1.1262638
O        -0.03039983     -0.010496062       -1.1176511
C        0.079701889      0.027518516     -0.011254082
3
# CELL(abcABC):   10.58354    10.58354    10.58354    90.00000    90.00000    90.00000  PyEPFD-Step: 62 positions{angstrom} cell{angstrom}
O       0.0053881831     0.0080630224        1.1452726
O       0.0053880574      0.008062826       -1.1350955
C       -0.014126777     -0.021139215     -0.013298451
3
# CELL(abcABC):   10.58354    10.58354    10.58354    90.00000    90.00000    90.00000  PyEPFD-Step: 63 positions{angstrom} cell{angstrom}
O       -0.014467822     -0.011541585        1.1762125
O       -0.014467415     -0.011541322       -1.1547127
C        0.037930944      0.030259131     -0.028094561
3
# CELL(abcABC):   10.58354    10.58354    10.58354    90.00000    90.00000    90.00000  PyEPFD-Step: 64 positions{angstrom} cell{angstrom}
O      -0.0064300233     -0.009372239        1.1344062
O      -0.0064298386    -0.0093719624       -1.1442801
C        0.016858216      0.024571544      0.012903266
3
# CELL(abcABC):   10.58354    10.58354    10.58354    90.00000    90.00000    90.00000  PyEPFD-Step: 65 positions{angstrom} cell{angstrom}
O        0.033953364      0.010380168        1.1676654
O        0.033952324      0.010379973       -1.1689862
C        -0.08901564     -0.027214101     0.0017263419
3
# CELL(abcABC):   10.58354    10.58354    10.58354    90.00000    90.00000    90.00000  PyEPFD-Step: 66 positions{angstrom} cell{angstrom}
O        0.022556579     0.0069511162        1.1079064
O        0.022555939     0.0069510608       -1.1045915
C       -0.059136725     -0.018224183    -0.0043311121
3
# CELL(abcABC):   10.58354    10.58354    10.58354    90.00000    90.00000    90.00000  PyEPFD-Step: 67 positions{angstrom} cell{angstrom}
O      -0.0053847999     -0.012792701        1.1820313
O      -0.0053846941      -0.01279238       -1.1731656
C        0.014118307      0.033539258     -0.011584897
3
# CELL(abcABC):   10.58354    10.58354    10.58354    90.00000    90.00000    90.00000  PyEPFD-Step: 68 positions{angstrom} cell{angstrom}
O      -0.0055349872     -0.014806032        1.1316561
O      -0.0055348484     -0.014805591       -1.1436461
C        0.014512173      0.038817551      0.015668555
3
# CELL(abcABC):   10.58354    10.58354    10.58354    90.00000    90.00000    90.00000  PyEPFD-Step: 69 positions{angstrom} cell{angstrom}
O     -0.00071688649    -0.0065245368        1.1386679
O     -0.00071687278    -0.0065243268       -1.1432727
C       0.0018799743      0.017105612     0.0060178648
3
# CELL(abcABC):   10.58354    10.58354    10.58354    90.00000    90.00000    90.00000  PyEPFD-Step: 70 positions{angstrom} cell{angstrom}
O      -0.0065177693     0.0041798238        1.1570218
O      -0.0065175483     0.0041796803       -1.1542981
C        0.017087139     -0.010958431    -0.0035586007
3
# CELL(abcABC):   10.58354    10.58354    10.58354    90.00000    90.00000    90.00000  PyEPFD-Step: 71 positions{angstrom} cell{angstrom}
O     -0.00068721596       0.01025137        1.1630162
O     -0.00068716388      0.010251062       -1.1644908
C       0.0018008066     -0.026876451     0.0019274382
3
# CELL(abcABC):   10.58354    10.58354    10.58354    90.00000    90.00000    90.00000  PyEPFD-Step: 72 positions{angstrom} cell{angstrom}
O        0.026620755      -0.01182583        1.1545828
O        0.026619888     -0.011825384       -1.1339702
C       -0.069790068        0.0310043     -0.026935231
3
# CELL(abcABC):   10.58354    10.58354    10.58354    90.00000    90.00000    90.00000  PyEPFD-Step: 73 positions{angstrom} cell{angstrom}
O       -0.023245282       0.02609174        1.1574119
O       -0.023244462      0.026090899       -1.1640928
C        0.060939455     -0.068405873      0.008730924
3
# CELL(abcABC):   10.58354    10.58354    10.58354    90.00000    90.00000    90.00000  PyEPFD-Step: 74 positions{angstrom} cell{angstrom}
O       -0.025928882     0.0096854578        1.1529682
O       -0.025928032     0.0096850889       -1.1599458
C        0.067976361     -0.025392813     0.0091184878
3
# CELL(abcABC):   10.58354    10.58354    10.58354    90.00000    90.00000    90.00000  PyEPFD-Step: 75 positions{angstrom} cell{angstrom}
O       -0.002426906     -0.026990516        1.1670284
O      -0.0024269354     -0.026989756       -1.1697275
C       0.0063648433      0.070762255     0.0035274331
3
# CELL(abcABC):   10.58354    10.58354    10.58354    90.00000    90.00000    90.00000  PyEPFD-Step: 76 positions{angstrom} cell{angstrom}
O        0.024596845      0.013503201        1.1648021
O        0.024596114      0.013502887       -1.1625203
C        -0.06448613     -0.035401905    -0.0029813545
3
# CELL(abcABC):   10.58354    10.58354    10.58354    90.00000    90.00000    90.00000  PyEPFD-Step: 77 positions{angstrom} cell{angstrom}
O        0.014276342    -0.0037234716        1.1397252
O        0.014275902    -0.0037232859       -1.1233088
C       -0.037427687     0.0097619433     -0.021451731
3
# CELL(abcABC):   10.58354    10.58354    10.58354    90.00000    90.00000    90.00000  PyEPFD-Step: 78 positions{angstrom} cell{angstrom}
O       -0.020521898     -0.012260284        1.1734401
O       -0.020521307     -0.012260021       -1.1646471
C        0.053802848      0.032143366     -0.011489927
3
# CELL(abcABC):   10.58354    10.58354    10.58354    90.00000    90.00000    90.00000  PyEPFD-Step: 79 positions{angstrom} cell{angstrom}
O       -0.010066195     -0.026189106        1.1856483
O        -0.01006599     -0.026188417       -1.1723757
C        0.026392541      0.068661212     -0.017343771
3
# CELL(abcABC):   10.58354    10.58354    10.58354    90.00000    90.00000    90.00000  PyEPFD-Step: 80 positions{angstrom} cell{angstrom}
O       -0.011599431     0.0025333014        1.1341052
O       -0.011599034     0.0025332191       -1.1272797
C        0.030409729    -0.0066417399    -0.0089186963
3
# CELL(abcABC):   10.58354    10.58354    10.58354    90.00000    90.00000    90.00000  PyEPFD-Step: 81 positions{angstrom} cell{angstrom}
O       -0.027971837      0.009360749        1.1612243
O       -0.027970913     0.0093603813       -1.1280841
C        0.073332342      -0.02454149      -0.04330566
3
# CELL(abcABC):   10.58354    10.58354    10.58354    90.00000    90.00000    90.00000  PyEPFD-Step: 82 positions{angstrom} cell{angstrom}
O        -0.02864603     0.0049083318        1.2147428
O       -0.028645149     0.0049080199       -1.1809369
C        0.075100296     -0.012868236     -0.044175622
3
# CELL(abcABC):   10.58354    10.58354    10.58354    90.00000    90.00000    90.00000  PyEPFD-Step: 83 positions{angstrom} cell{angstrom}
O        0.027597178     -0.047777734        1.1490283
O        0.027596149      -0.04777624       -1.1464141
C       -0.072346913       0.12526098     -0.003415798
3
# CELL(abcABC):   10.58354    10.58354    10.58354    90.00000    90.00000    90.00000  PyEPFD-Step: 84 positions{angstrom} cell{angstrom}
O        0.028186547    -0.0030469649        1.1517008
O        0.028185662    -0.0030467656       -1.1362535
C       -0.073895806      0.007988356      -0.02018545
3
# CELL(abcABC):   10.58354    10.58354    10.58354    90.00000    90.00000    90.00000  PyEPFD-Step: 85 positions{angstrom} cell{angstrom}
O      -0.0052326138      -0.01051807        1.1563116
O      -0.0052324828     -0.010517781       -1.1493061
C        0.013719105      0.027575684    -0.0091540079
3
# CELL(abcABC):   10.58354    10.58354    10.58354    90.00000    90.00000    90.00000  PyEPFD-Step: 86 positions{angstrom} cell{angstrom}
O        0.014350161     -0.020958482        1.1357824
O        0.014349636     -0.020957806       -1.1784225
C       -0.037619739      0.054947723      0.055720749
3
# CELL(abcABC):   10.58354    10.58354    10.58354    90.00000    90.00000    90.00000  PyEPFD-Step: 87 positions{angstrom} cell{angstrom}
O        0.012801194      0.012423265        1.1379705
O        0.012800855      0.012422977       -1.1315845
C       -0.033561674     -0.032570673     -0.008344435
3
# CELL(abcABC):   10.58354    10.58354    10.58354    90.00000    90.00000    90.00000  PyEPFD-Step: 88 positions{angstrom} cell{angstrom}
O       -0.019465913     -0.024368074        1.1637455
O       -0.019465402     -0.024367451       -1.1835954
C        0.051035416      0.063886868      0.025939361
3
# CELL(abcABC):   10.58354    10.58354    10.58354    90.00000    90.00000    90.00000  PyEPFD-Step: 89 positions{angstrom} cell{angstrom}
O        0.019293486      0.014053494        1.1497267
O        0.019292933      0.014053163       -1.1547299
C       -0.050582488     -0.036844678     0.0065385207
3
# CELL(abcABC):   10.58354    10.58354    10.58354    90.00000    90.00000    90.00000  PyEPFD-Step: 90 positions{angstrom} cell{angstrom}
O       -0.031373199     0.0073676264        1.1227389
O       -0.031372158     0.0073673462       -1.1267418
C        0.082249765     -0.019316143     0.0052314359
3
# CELL(abcABC):   10.58354    10.58354    10.58354    90.00000    90.00000    90.00000  PyEPFD-Step: 91 positions{angstrom} cell{angstrom}
O       -0.013722638      0.016972338        1.1455899
O        -0.01372214       0.01697181        -1.153128
C        0.035974904     -0.044497164     0.0098509917
3
# CELL(abcABC):   10.58354    10.58354    10.58354    90.00000    90.00000    90.00000  PyEPFD-Step: 92 positions{angstrom} cell{angstrom}
O       0.0089777196     -0.017346667        1.1493049
O       0.0089773813     -0.017346123       -1.1528272
C        -0.02353524      0.045478502     0.0046033171
3
# CELL(abcABC):   10.58354    10.58354    10.58354    90.00000    90.00000    90.00000  PyEPFD-Step: 93 positions{angstrom} cell{angstrom}
O       0.0083785963    -0.0046439929         1.161794
O        0.008378311    -0.0046438355       -1.1649391
C       -0.021965583      0.012175378     0.0041103948
3
# CELL(abcABC):   10.58354    10.58354    10.58354    90.00000    90.00000    90.00000  PyEPFD-Step: 94 positions{angstrom} cell{angstrom}
O       -0.028135114      0.015298671        1.1200094
O        -0.02813415      0.015298173       -1.1364174
C         0.07375989     -0.040109317      0.021441982
3
# CELL(abcABC):   10.58354    10.58354    10.58354    90.00000    90.00000    90.00000  PyEPFD-Step: 95 positions{angstrom} cell{angstrom}
O        0.037856681      0.013047997        1.1462305
O        0.037855547      0.013047768       -1.1442791
C       -0.099249129     -0.034208528    -0.0025495333
3
# CELL(abcABC):   10.58354    10.58354    10.58354    90.00000    90.00000    90.00000  PyEPFD-Step: 96 positions{angstrom} cell{angstrom}
O       -0.027990729     0.0033911404        1.1294724
O       -0.027989819     0.0033909762       -1.1430498
C        0.073382366    -0.0088907923      0.017742994
3
# CELL(abcABC):   10.58354    10.58354    10.58354    90.00000    90.00000    90.00000  PyEPFD-Step: 97 positions{angstrom} cell{angstrom}
O      -0.0086657834      -0.01361561         1.158839
O      -0.0086655557     -0.013615246       -1.1472954
C        0.022720029      0.035696647       -0.0150843
3